unknown system                          
   1.00000000000000     
     4.416383    0.000000    0.000000
     0.000000    4.416383    0.000000
     0.000000    0.000000    4.416383
   C    Ta
     4     4
Direct
  0.000000  0.000000  0.500000
  0.000000  0.500000  0.000000
  0.500000  0.000000  0.000000
  0.500000  0.500000  0.500000
  0.000000  0.000000  0.000000
  0.000000  0.500000  0.500000
  0.500000  0.000000  0.500000
  0.500000  0.500000  0.000000
 
   60   60   60
  37.774      37.252      35.891      34.213      32.830      32.212      32.522      33.580      34.952      36.143    
  36.816      36.935      36.784      36.867      37.740      39.851      43.474      48.778      56.007      65.553    
  77.749      92.531      109.24      126.42      141.26      150.32      151.12      143.93      132.31      121.89    
  117.73      121.89      132.31      143.93      151.12      150.32      141.26      126.42      109.24      92.531    
  77.749      65.553      56.007      48.778      43.474      39.851      37.740      36.867      36.784      36.935    
  36.816      36.143      34.952      33.580      32.522      32.212      32.830      34.213      35.891      37.252    
  37.252      36.760      35.482      33.916      32.648      32.119      32.477      33.538      34.877      36.014    
  36.632      36.707      36.529      36.597      37.459      39.554      43.145      48.395      55.536      64.950    
  76.968      91.550      108.06      125.14      140.12      149.70      151.45      145.50      135.16      125.68    
  121.89      125.68      135.16      145.50      151.45      149.70      140.12      125.14      108.06      91.550    
  76.968      64.950      55.536      48.395      43.145      39.554      37.459      36.597      36.529      36.707    
  36.632      36.014      34.877      33.538      32.477      32.119      32.648      33.916      35.482      36.760    
  35.891      35.482      34.428      33.165      32.199      31.901      32.375      33.427      34.655      35.632    
  36.087      36.036      35.780      35.807      36.640      38.688      42.190      47.280      54.166      63.198    
  74.699      88.687      104.61      121.33      136.60      147.47      151.66      149.01      142.06      135.16    
  132.31      135.16      142.06      149.01      151.66      147.47      136.60      121.33      104.61      88.687    
  74.699      63.198      54.166      47.280      42.190      38.688      36.640      35.807      35.780      36.036    
  36.087      35.632      34.655      33.427      32.375      31.901      32.199      33.165      34.428      35.482    
  34.213      33.916      33.165      32.305      31.730      31.714      32.297      33.277      34.297      35.001    
  35.199      34.956      34.588      34.561      35.354      37.330      40.687      45.526      52.016      60.454    
  71.145      84.180      99.141      115.14      130.47      142.75      149.94      151.50      149.01      145.50    
  143.93      145.50      149.01      151.50      149.94      142.75      130.47      115.14      99.141      84.180    
  71.145      60.454      52.016      45.526      40.687      37.330      35.354      34.561      34.588      34.956    
  35.199      35.001      34.297      33.277      32.297      31.714      31.730      32.305      33.165      33.916    
  32.830      32.648      32.199      31.730      31.514      31.715      32.314      33.109      33.802      34.132    
  33.999      33.527      33.036      32.957      33.708      35.590      38.757      43.269      49.257      56.949    
  66.615      78.399      92.058      106.91      121.77      134.90      144.56      149.94      151.66      151.45    
  151.12      151.45      151.66      149.94      144.56      134.90      121.77      106.91      92.058      78.399    
  66.615      56.949      49.257      43.269      38.757      35.590      33.708      32.957      33.036      33.527    
  33.999      34.132      33.802      33.109      32.314      31.715      31.514      31.730      32.199      32.648    
  32.212      32.119      31.901      31.714      31.715      31.977      32.433      32.901      33.154      33.035    
  32.536      31.831      31.233      31.119      31.831      33.602      36.537      40.668      46.085      52.948    
  61.467      71.812      83.903      97.232      111.00      124.00      134.90      142.75      147.47      149.70    
  150.32      149.70      147.47      142.75      134.90      124.00      111.00      97.232      83.903      71.812    
  61.467      52.948      46.085      40.668      36.537      33.602      31.831      31.119      31.233      31.831    
  32.536      33.035      33.154      32.901      32.433      31.977      31.715      31.714      31.901      32.119    
  32.522      32.477      32.375      32.297      32.314      32.433      32.571      32.580      32.317      31.723    
  30.873      29.969      29.303      29.180      29.859      31.502      34.168      37.883      42.698      48.708    
  56.062      64.911      75.271      86.853      99.029      111.00      121.77      130.47      136.60      140.12    
  141.26      140.12      136.60      130.47      121.77      111.00      99.029      86.853      75.271      64.911    
  56.062      48.708      42.698      37.883      34.168      31.502      29.859      29.180      29.303      29.969    
  30.873      31.723      32.317      32.580      32.571      32.433      32.314      32.297      32.375      32.477    
  33.580      33.538      33.427      33.277      33.109      32.901      32.580      32.053      31.261      30.230    
  29.090      28.055      27.370      27.267      27.915      29.412      31.786      35.064      39.273      44.457    
  50.705      58.126      66.765      76.481      86.853      97.232      106.91      115.14      121.33      125.14    
  126.42      125.14      121.33      115.14      106.91      97.232      86.853      76.481      66.765      58.126    
  50.705      44.457      39.273      35.064      31.786      29.412      27.915      27.267      27.370      28.055    
  29.090      30.230      31.261      32.053      32.580      32.901      33.109      33.277      33.427      33.538    
  34.952      34.877      34.655      34.297      33.802      33.154      32.317      31.261      30.002      28.627    
  27.297      26.209      25.556      25.489      26.103      27.435      29.505      32.343      35.960      40.374    
  45.626      51.774      58.847      66.765      75.271      83.903      92.058      99.141      104.61      108.06    
  109.24      108.06      104.61      99.141      92.058      83.903      75.271      66.765      58.847      51.774    
  45.626      40.374      35.960      32.343      29.505      27.435      26.103      25.489      25.556      26.209    
  27.297      28.627      30.002      31.261      32.317      33.154      33.802      34.297      34.655      34.877    
  36.143      36.014      35.632      35.001      34.132      33.035      31.723      30.230      28.627      27.038    
  25.626      24.556      23.965      23.934      24.494      25.647      27.416      29.823      32.879      36.589    
  40.968      46.032      51.774      58.126      64.911      71.812      78.399      84.180      88.687      91.550    
  92.531      91.550      88.687      84.180      78.399      71.812      64.911      58.126      51.774      46.032    
  40.968      36.589      32.879      29.823      27.416      25.647      24.494      23.934      23.965      24.556    
  25.626      27.038      28.627      30.230      31.723      33.035      34.132      35.001      35.632      36.014    
  36.816      36.632      36.087      35.199      33.999      32.536      30.873      29.090      27.297      25.626    
  24.222      23.213      22.681      22.659      23.135      24.104      25.582      27.580      30.113      33.189    
  36.811      40.968      45.626      50.705      56.062      61.467      66.615      71.145      74.699      76.968    
  77.749      76.968      74.699      71.145      66.615      61.467      56.062      50.705      45.626      40.968    
  36.811      33.189      30.113      27.580      25.582      24.104      23.135      22.659      22.681      23.213    
  24.222      25.626      27.297      29.090      30.873      32.536      33.999      35.199      36.087      36.632    
  36.935      36.707      36.036      34.956      33.527      31.831      29.969      28.055      26.209      24.556    
  23.213      22.266      21.761      21.697      22.058      22.838      24.035      25.655      27.713      30.224    
  33.189      36.589      40.374      44.457      48.708      52.948      56.949      60.454      63.198      64.950    
  65.553      64.950      63.198      60.454      56.949      52.948      48.708      44.457      40.374      36.589    
  33.189      30.224      27.713      25.655      24.035      22.838      22.058      21.697      21.761      22.266    
  23.213      24.556      26.209      28.055      29.969      31.831      33.527      34.956      36.036      36.707    
  36.784      36.529      35.780      34.588      33.036      31.233      29.303      27.370      25.556      23.965    
  22.681      21.761      21.223      21.066      21.283      21.861      22.787      24.062      25.698      27.713    
  30.113      32.879      35.960      39.273      42.698      46.085      49.257      52.016      54.166      55.536    
  56.007      55.536      54.166      52.016      49.257      46.085      42.698      39.273      35.960      32.879    
  30.113      27.713      25.698      24.062      22.787      21.861      21.283      21.066      21.223      21.761    
  22.681      23.965      25.556      27.370      29.303      31.233      33.036      34.588      35.780      36.529    
  36.867      36.597      35.807      34.561      32.957      31.119      29.180      27.267      25.489      23.934    
  22.659      21.697      21.066      20.774      20.815      21.172      21.832      22.792      24.062      25.655    
  27.580      29.823      32.343      35.064      37.883      40.668      43.269      45.526      47.280      48.395    
  48.778      48.395      47.280      45.526      43.269      40.668      37.883      35.064      32.343      29.823    
  27.580      25.655      24.062      22.792      21.832      21.172      20.815      20.774      21.066      21.697    
  22.659      23.934      25.489      27.267      29.180      31.119      32.957      34.561      35.807      36.597    
  37.740      37.459      36.640      35.354      33.708      31.831      29.859      27.915      26.103      24.494    
  23.135      22.058      21.283      20.815      20.646      20.764      21.160      21.832      22.787      24.035    
  25.582      27.416      29.505      31.786      34.168      36.537      38.757      40.687      42.190      43.145    
  43.474      43.145      42.190      40.687      38.757      36.537      34.168      31.786      29.505      27.416    
  25.582      24.035      22.787      21.832      21.160      20.764      20.646      20.815      21.283      22.058    
  23.135      24.494      26.103      27.915      29.859      31.831      33.708      35.354      36.640      37.459    
  39.851      39.554      38.688      37.330      35.590      33.602      31.502      29.412      27.435      25.647    
  24.104      22.838      21.861      21.172      20.764      20.629      20.764      21.172      21.861      22.838    
  24.104      25.647      27.435      29.412      31.502      33.602      35.590      37.330      38.688      39.554    
  39.851      39.554      38.688      37.330      35.590      33.602      31.502      29.412      27.435      25.647    
  24.104      22.838      21.861      21.172      20.764      20.629      20.764      21.172      21.861      22.838    
  24.104      25.647      27.435      29.412      31.502      33.602      35.590      37.330      38.688      39.554    
  43.474      43.145      42.190      40.687      38.757      36.537      34.168      31.786      29.505      27.416    
  25.582      24.035      22.787      21.832      21.160      20.764      20.646      20.815      21.283      22.058    
  23.135      24.494      26.103      27.915      29.859      31.831      33.708      35.354      36.640      37.459    
  37.740      37.459      36.640      35.354      33.708      31.831      29.859      27.915      26.103      24.494    
  23.135      22.058      21.283      20.815      20.646      20.764      21.160      21.832      22.787      24.035    
  25.582      27.416      29.505      31.786      34.168      36.537      38.757      40.687      42.190      43.145    
  48.778      48.395      47.280      45.526      43.269      40.668      37.883      35.064      32.343      29.823    
  27.580      25.655      24.062      22.792      21.832      21.172      20.815      20.774      21.066      21.697    
  22.659      23.934      25.489      27.267      29.180      31.119      32.957      34.561      35.807      36.597    
  36.867      36.597      35.807      34.561      32.957      31.119      29.180      27.267      25.489      23.934    
  22.659      21.697      21.066      20.774      20.815      21.172      21.832      22.792      24.062      25.655    
  27.580      29.823      32.343      35.064      37.883      40.668      43.269      45.526      47.280      48.395    
  56.007      55.536      54.166      52.016      49.257      46.085      42.698      39.273      35.960      32.879    
  30.113      27.713      25.698      24.062      22.787      21.861      21.283      21.066      21.223      21.761    
  22.681      23.965      25.556      27.370      29.303      31.233      33.036      34.588      35.780      36.529    
  36.784      36.529      35.780      34.588      33.036      31.233      29.303      27.370      25.556      23.965    
  22.681      21.761      21.223      21.066      21.283      21.861      22.787      24.062      25.698      27.713    
  30.113      32.879      35.960      39.273      42.698      46.085      49.257      52.016      54.166      55.536    
  65.553      64.950      63.198      60.454      56.949      52.948      48.708      44.457      40.374      36.589    
  33.189      30.224      27.713      25.655      24.035      22.838      22.058      21.697      21.761      22.266    
  23.213      24.556      26.209      28.055      29.969      31.831      33.527      34.956      36.036      36.707    
  36.935      36.707      36.036      34.956      33.527      31.831      29.969      28.055      26.209      24.556    
  23.213      22.266      21.761      21.697      22.058      22.838      24.035      25.655      27.713      30.224    
  33.189      36.589      40.374      44.457      48.708      52.948      56.949      60.454      63.198      64.950    
  77.749      76.968      74.699      71.145      66.615      61.467      56.062      50.705      45.626      40.968    
  36.811      33.189      30.113      27.580      25.582      24.104      23.135      22.659      22.681      23.213    
  24.222      25.626      27.297      29.090      30.873      32.536      33.999      35.199      36.087      36.632    
  36.816      36.632      36.087      35.199      33.999      32.536      30.873      29.090      27.297      25.626    
  24.222      23.213      22.681      22.659      23.135      24.104      25.582      27.580      30.113      33.189    
  36.811      40.968      45.626      50.705      56.062      61.467      66.615      71.145      74.699      76.968    
  92.531      91.550      88.687      84.180      78.399      71.812      64.911      58.126      51.774      46.032    
  40.968      36.589      32.879      29.823      27.416      25.647      24.494      23.934      23.965      24.556    
  25.626      27.038      28.627      30.230      31.723      33.035      34.132      35.001      35.632      36.014    
  36.143      36.014      35.632      35.001      34.132      33.035      31.723      30.230      28.627      27.038    
  25.626      24.556      23.965      23.934      24.494      25.647      27.416      29.823      32.879      36.589    
  40.968      46.032      51.774      58.126      64.911      71.812      78.399      84.180      88.687      91.550    
  109.24      108.06      104.61      99.141      92.058      83.903      75.271      66.765      58.847      51.774    
  45.626      40.374      35.960      32.343      29.505      27.435      26.103      25.489      25.556      26.209    
  27.297      28.627      30.002      31.261      32.317      33.154      33.802      34.297      34.655      34.877    
  34.952      34.877      34.655      34.297      33.802      33.154      32.317      31.261      30.002      28.627    
  27.297      26.209      25.556      25.489      26.103      27.435      29.505      32.343      35.960      40.374    
  45.626      51.774      58.847      66.765      75.271      83.903      92.058      99.141      104.61      108.06    
  126.42      125.14      121.33      115.14      106.91      97.232      86.853      76.481      66.765      58.126    
  50.705      44.457      39.273      35.064      31.786      29.412      27.915      27.267      27.370      28.055    
  29.090      30.230      31.261      32.053      32.580      32.901      33.109      33.277      33.427      33.538    
  33.580      33.538      33.427      33.277      33.109      32.901      32.580      32.053      31.261      30.230    
  29.090      28.055      27.370      27.267      27.915      29.412      31.786      35.064      39.273      44.457    
  50.705      58.126      66.765      76.481      86.853      97.232      106.91      115.14      121.33      125.14    
  141.26      140.12      136.60      130.47      121.77      111.00      99.029      86.853      75.271      64.911    
  56.062      48.708      42.698      37.883      34.168      31.502      29.859      29.180      29.303      29.969    
  30.873      31.723      32.317      32.580      32.571      32.433      32.314      32.297      32.375      32.477    
  32.522      32.477      32.375      32.297      32.314      32.433      32.571      32.580      32.317      31.723    
  30.873      29.969      29.303      29.180      29.859      31.502      34.168      37.883      42.698      48.708    
  56.062      64.911      75.271      86.853      99.029      111.00      121.77      130.47      136.60      140.12    
  150.32      149.70      147.47      142.75      134.90      124.00      111.00      97.232      83.903      71.812    
  61.467      52.948      46.085      40.668      36.537      33.602      31.831      31.119      31.233      31.831    
  32.536      33.035      33.154      32.901      32.433      31.977      31.715      31.714      31.901      32.119    
  32.212      32.119      31.901      31.714      31.715      31.977      32.433      32.901      33.154      33.035    
  32.536      31.831      31.233      31.119      31.831      33.602      36.537      40.668      46.085      52.948    
  61.467      71.812      83.903      97.232      111.00      124.00      134.90      142.75      147.47      149.70    
  151.12      151.45      151.66      149.94      144.56      134.90      121.77      106.91      92.058      78.399    
  66.615      56.949      49.257      43.269      38.757      35.590      33.708      32.957      33.036      33.527    
  33.999      34.132      33.802      33.109      32.314      31.715      31.514      31.730      32.199      32.648    
  32.830      32.648      32.199      31.730      31.514      31.715      32.314      33.109      33.802      34.132    
  33.999      33.527      33.036      32.957      33.708      35.590      38.757      43.269      49.257      56.949    
  66.615      78.399      92.058      106.91      121.77      134.90      144.56      149.94      151.66      151.45    
  143.93      145.50      149.01      151.50      149.94      142.75      130.47      115.14      99.141      84.180    
  71.145      60.454      52.016      45.526      40.687      37.330      35.354      34.561      34.588      34.956    
  35.199      35.001      34.297      33.277      32.297      31.714      31.730      32.305      33.165      33.916    
  34.213      33.916      33.165      32.305      31.730      31.714      32.297      33.277      34.297      35.001    
  35.199      34.956      34.588      34.561      35.354      37.330      40.687      45.526      52.016      60.454    
  71.145      84.180      99.141      115.14      130.47      142.75      149.94      151.50      149.01      145.50    
  132.31      135.16      142.06      149.01      151.66      147.47      136.60      121.33      104.61      88.687    
  74.699      63.198      54.166      47.280      42.190      38.688      36.640      35.807      35.780      36.036    
  36.087      35.632      34.655      33.427      32.375      31.901      32.199      33.165      34.428      35.482    
  35.891      35.482      34.428      33.165      32.199      31.901      32.375      33.427      34.655      35.632    
  36.087      36.036      35.780      35.807      36.640      38.688      42.190      47.280      54.166      63.198    
  74.699      88.687      104.61      121.33      136.60      147.47      151.66      149.01      142.06      135.16    
  121.89      125.68      135.16      145.50      151.45      149.70      140.12      125.14      108.06      91.550    
  76.968      64.950      55.536      48.395      43.145      39.554      37.459      36.597      36.529      36.707    
  36.632      36.014      34.877      33.538      32.477      32.119      32.648      33.916      35.482      36.760    
  37.252      36.760      35.482      33.916      32.648      32.119      32.477      33.538      34.877      36.014    
  36.632      36.707      36.529      36.597      37.459      39.554      43.145      48.395      55.536      64.950    
  76.968      91.550      108.06      125.14      140.12      149.70      151.45      145.50      135.16      125.68    
  117.73      121.89      132.31      143.93      151.12      150.32      141.26      126.42      109.24      92.531    
  77.749      65.553      56.007      48.778      43.474      39.851      37.740      36.867      36.784      36.935    
  36.816      36.143      34.952      33.580      32.522      32.212      32.830      34.213      35.891      37.252    
  37.774      37.252      35.891      34.213      32.830      32.212      32.522      33.580      34.952      36.143    
  36.816      36.935      36.784      36.867      37.740      39.851      43.474      48.778      56.007      65.553    
  77.749      92.531      109.24      126.42      141.26      150.32      151.12      143.93      132.31      121.89    
  121.89      125.68      135.16      145.50      151.45      149.70      140.12      125.14      108.06      91.550    
  76.968      64.950      55.536      48.395      43.145      39.554      37.459      36.597      36.529      36.707    
  36.632      36.014      34.877      33.538      32.477      32.119      32.648      33.916      35.482      36.760    
  37.252      36.760      35.482      33.916      32.648      32.119      32.477      33.538      34.877      36.014    
  36.632      36.707      36.529      36.597      37.459      39.554      43.145      48.395      55.536      64.950    
  76.968      91.550      108.06      125.14      140.12      149.70      151.45      145.50      135.16      125.68    
  132.31      135.16      142.06      149.01      151.66      147.47      136.60      121.33      104.61      88.687    
  74.699      63.198      54.166      47.280      42.190      38.688      36.640      35.807      35.780      36.036    
  36.087      35.632      34.655      33.427      32.375      31.901      32.199      33.165      34.428      35.482    
  35.891      35.482      34.428      33.165      32.199      31.901      32.375      33.427      34.655      35.632    
  36.087      36.036      35.780      35.807      36.640      38.688      42.190      47.280      54.166      63.198    
  74.699      88.687      104.61      121.33      136.60      147.47      151.66      149.01      142.06      135.16    
  143.93      145.50      149.01      151.50      149.94      142.75      130.47      115.14      99.141      84.180    
  71.145      60.454      52.016      45.526      40.687      37.330      35.354      34.561      34.588      34.956    
  35.199      35.001      34.297      33.277      32.297      31.714      31.730      32.305      33.165      33.916    
  34.213      33.916      33.165      32.305      31.730      31.714      32.297      33.277      34.297      35.001    
  35.199      34.956      34.588      34.561      35.354      37.330      40.687      45.526      52.016      60.454    
  71.145      84.180      99.141      115.14      130.47      142.75      149.94      151.50      149.01      145.50    
  151.12      151.45      151.66      149.94      144.56      134.90      121.77      106.91      92.058      78.399    
  66.615      56.949      49.257      43.269      38.757      35.590      33.708      32.957      33.036      33.527    
  33.999      34.132      33.802      33.109      32.314      31.715      31.514      31.730      32.199      32.648    
  32.830      32.648      32.199      31.730      31.514      31.715      32.314      33.109      33.802      34.132    
  33.999      33.527      33.036      32.957      33.708      35.590      38.757      43.269      49.257      56.949    
  66.615      78.399      92.058      106.91      121.77      134.90      144.56      149.94      151.66      151.45    
  150.32      149.70      147.47      142.75      134.90      124.00      111.00      97.232      83.903      71.812    
  61.467      52.948      46.085      40.668      36.537      33.602      31.831      31.119      31.233      31.831    
  32.536      33.035      33.154      32.901      32.433      31.977      31.715      31.714      31.901      32.119    
  32.212      32.119      31.901      31.714      31.715      31.977      32.433      32.901      33.154      33.035    
  32.536      31.831      31.233      31.119      31.831      33.602      36.537      40.668      46.085      52.948    
  61.467      71.812      83.903      97.232      111.00      124.00      134.90      142.75      147.47      149.70    
  141.26      140.12      136.60      130.47      121.77      111.00      99.029      86.853      75.271      64.911    
  56.062      48.708      42.698      37.883      34.168      31.502      29.859      29.180      29.303      29.969    
  30.873      31.723      32.317      32.580      32.571      32.433      32.314      32.297      32.375      32.477    
  32.522      32.477      32.375      32.297      32.314      32.433      32.571      32.580      32.317      31.723    
  30.873      29.969      29.303      29.180      29.859      31.502      34.168      37.883      42.698      48.708    
  56.062      64.911      75.271      86.853      99.029      111.00      121.77      130.47      136.60      140.12    
  126.42      125.14      121.33      115.14      106.91      97.232      86.853      76.481      66.765      58.126    
  50.705      44.457      39.273      35.064      31.786      29.412      27.915      27.267      27.370      28.055    
  29.090      30.230      31.261      32.053      32.580      32.901      33.109      33.277      33.427      33.538    
  33.580      33.538      33.427      33.277      33.109      32.901      32.580      32.053      31.261      30.230    
  29.090      28.055      27.370      27.267      27.915      29.412      31.786      35.064      39.273      44.457    
  50.705      58.126      66.765      76.481      86.853      97.232      106.91      115.14      121.33      125.14    
  109.24      108.06      104.61      99.141      92.058      83.903      75.271      66.765      58.847      51.774    
  45.626      40.374      35.960      32.343      29.505      27.435      26.103      25.489      25.556      26.209    
  27.297      28.627      30.002      31.261      32.317      33.154      33.802      34.297      34.655      34.877    
  34.952      34.877      34.655      34.297      33.802      33.154      32.317      31.261      30.002      28.627    
  27.297      26.209      25.556      25.489      26.103      27.435      29.505      32.343      35.960      40.374    
  45.626      51.774      58.847      66.765      75.271      83.903      92.058      99.141      104.61      108.06    
  92.531      91.550      88.687      84.180      78.399      71.812      64.911      58.126      51.774      46.032    
  40.968      36.589      32.879      29.823      27.416      25.647      24.494      23.934      23.965      24.556    
  25.626      27.038      28.627      30.230      31.723      33.035      34.132      35.001      35.632      36.014    
  36.143      36.014      35.632      35.001      34.132      33.035      31.723      30.230      28.627      27.038    
  25.626      24.556      23.965      23.934      24.494      25.647      27.416      29.823      32.879      36.589    
  40.968      46.032      51.774      58.126      64.911      71.812      78.399      84.180      88.687      91.550    
  77.749      76.968      74.699      71.145      66.615      61.467      56.062      50.705      45.626      40.968    
  36.811      33.189      30.113      27.580      25.582      24.104      23.135      22.659      22.681      23.213    
  24.222      25.626      27.297      29.090      30.873      32.536      33.999      35.199      36.087      36.632    