unknown system                          
   1.00000000000000     
     4.475092    0.000000    0.000000
     0.000000    4.475092    0.000000
     0.000000    0.000000    4.475092
   C    Ta
     4     4
Direct
  0.000000  0.000000  0.500000
  0.000000  0.500000  0.000000
  0.500000  0.000000  0.000000
  0.500000  0.500000  0.500000
  0.000000  0.000000  0.000000
  0.000000  0.500000  0.500000
  0.500000  0.000000  0.500000
  0.500000  0.500000  0.000000
 
   60   60   60
 0.37330010923E+02 0.36820082802E+02 0.35488204249E+02 0.33838806900E+02 0.32468771481E+02
 0.31839703041E+02 0.32122754226E+02 0.33155927252E+02 0.34526271877E+02 0.35753760457E+02
 0.36501712066E+02 0.36720432337E+02 0.36671770869E+02 0.36839673365E+02 0.37769348742E+02
 0.39908375090E+02 0.43539426830E+02 0.48845151876E+02 0.56067582447E+02 0.65587741772E+02
 0.77717810001E+02 0.92359710510E+02 0.10884252473E+03 0.12568800284E+03 0.14012377157E+03
 0.14878337360E+03 0.14933199019E+03 0.14212502518E+03 0.13070223158E+03 0.12052300761E+03
 0.11647926328E+03 0.12052300761E+03 0.13070223158E+03 0.14212502518E+03 0.14933199019E+03
 0.14878337360E+03 0.14012377157E+03 0.12568800284E+03 0.10884252473E+03 0.92359710510E+02
 0.77717810001E+02 0.65587741772E+02 0.56067582447E+02 0.48845151876E+02 0.43539426830E+02
 0.39908375090E+02 0.37769348742E+02 0.36839673365E+02 0.36671770869E+02 0.36720432337E+02
 0.36501712066E+02 0.35753760457E+02 0.34526271877E+02 0.33155927252E+02 0.32122754226E+02
 0.31839703041E+02 0.32468771481E+02 0.33838806900E+02 0.35488204249E+02 0.36820082802E+02
 0.36820082802E+02 0.36339484824E+02 0.35087362403E+02 0.33546648548E+02 0.32287045961E+02
 0.31745380010E+02 0.32076588616E+02 0.33114460913E+02 0.34453745567E+02 0.35630046635E+02
 0.36323909844E+02 0.36498558619E+02 0.36421037590E+02 0.36572563639E+02 0.37490397680E+02
 0.39612716416E+02 0.43213202831E+02 0.48464921810E+02 0.55600446657E+02 0.64990545728E+02
 0.76946665420E+02 0.91393115651E+02 0.10768774275E+03 0.12444198663E+03 0.13902592655E+03
 0.14820496159E+03 0.14968040754E+03 0.14368577548E+03 0.13349133524E+03 0.12422793808E+03
 0.12052300761E+03 0.12422793808E+03 0.13349133524E+03 0.14368577548E+03 0.14968040754E+03
 0.14820496159E+03 0.13902592655E+03 0.12444198663E+03 0.10768774275E+03 0.91393115651E+02
 0.76946665420E+02 0.64990545728E+02 0.55600446657E+02 0.48464921810E+02 0.43213202831E+02
 0.39612716416E+02 0.37490397680E+02 0.36572563639E+02 0.36421037590E+02 0.36498558619E+02
 0.36323909844E+02 0.35630046635E+02 0.34453745567E+02 0.33114460913E+02 0.32076588616E+02
 0.31745380010E+02 0.32287045961E+02 0.33546648548E+02 0.35087362403E+02 0.36339484824E+02
 0.35488204249E+02 0.35087362403E+02 0.34051577142E+02 0.32803984069E+02 0.31838878323E+02
 0.31524681472E+02 0.31972189473E+02 0.33004946267E+02 0.34241018288E+02 0.35261414615E+02
 0.35795894834E+02 0.35843746104E+02 0.35685340849E+02 0.35792331041E+02 0.36677735039E+02
 0.38751970148E+02 0.42262957869E+02 0.47357074618E+02 0.54240661083E+02 0.63253870334E+02
 0.74702839848E+02 0.88572514028E+02 0.10429965714E+03 0.12072598608E+03 0.13560987122E+03
 0.14608604360E+03 0.14997294416E+03 0.14719120277E+03 0.14028658761E+03 0.13349133524E+03
 0.13070223158E+03 0.13349133524E+03 0.14028658761E+03 0.14719120277E+03 0.14997294416E+03
 0.14608604360E+03 0.13560987122E+03 0.12072598608E+03 0.10429965714E+03 0.88572514028E+02
 0.74702839848E+02 0.63253870334E+02 0.54240661083E+02 0.47357074618E+02 0.42262957869E+02
 0.38751970148E+02 0.36677735039E+02 0.35792331041E+02 0.35685340849E+02 0.35843746104E+02
 0.35795894834E+02 0.35261414615E+02 0.34241018288E+02 0.33004946267E+02 0.31972189473E+02
 0.31524681472E+02 0.31838878323E+02 0.32803984069E+02 0.34051577142E+02 0.35087362403E+02
 0.33838806900E+02 0.33546648548E+02 0.32803984069E+02 0.31948261125E+02 0.31366281361E+02
 0.31330077227E+02 0.31890287958E+02 0.32860502433E+02 0.33898129974E+02 0.34655034129E+02
 0.34935196607E+02 0.34789662020E+02 0.34514209231E+02 0.34560644443E+02 0.35400786200E+02
 0.37400496282E+02 0.40768628021E+02 0.45613665737E+02 0.52104721019E+02 0.60532282383E+02
 0.71185564149E+02 0.84126386391E+02 0.98915304443E+02 0.11466203810E+03 0.12965644812E+03
 0.14156624681E+03 0.14842154497E+03 0.14976866758E+03 0.14719120277E+03 0.14368577548E+03
 0.14212502518E+03 0.14368577548E+03 0.14719120277E+03 0.14976866758E+03 0.14842154497E+03
 0.14156624681E+03 0.12965644812E+03 0.11466203810E+03 0.98915304443E+02 0.84126386391E+02
 0.71185564149E+02 0.60532282383E+02 0.52104721019E+02 0.45613665737E+02 0.40768628021E+02
 0.37400496282E+02 0.35400786200E+02 0.34560644443E+02 0.34514209231E+02 0.34789662020E+02
 0.34935196607E+02 0.34655034129E+02 0.33898129974E+02 0.32860502433E+02 0.31890287958E+02
 0.31330077227E+02 0.31366281361E+02 0.31948261125E+02 0.32803984069E+02 0.33546648548E+02
 0.32468771481E+02 0.32287045961E+02 0.31838878323E+02 0.31366281361E+02 0.31137428296E+02
 0.31320329072E+02 0.31905025738E+02 0.32703518109E+02 0.33428360700E+02 0.33820755607E+02
 0.33773406573E+02 0.33394199906E+02 0.32988445896E+02 0.32974075690E+02 0.33765072815E+02
 0.35669058506E+02 0.38847673861E+02 0.43369234764E+02 0.49362054730E+02 0.57052257267E+02
 0.66694800832E+02 0.78412985192E+02 0.91935750651E+02 0.10658004148E+03 0.12117073409E+03
 0.13396796671E+03 0.14330184369E+03 0.14842154497E+03 0.14997294416E+03 0.14968040754E+03
 0.14933199019E+03 0.14968040754E+03 0.14997294416E+03 0.14842154497E+03 0.14330184369E+03
 0.13396796671E+03 0.12117073409E+03 0.10658004148E+03 0.91935750651E+02 0.78412985192E+02
 0.66694800832E+02 0.57052257267E+02 0.49362054730E+02 0.43369234764E+02 0.38847673861E+02
 0.35669058506E+02 0.33765072815E+02 0.32974075690E+02 0.32988445896E+02 0.33394199906E+02
 0.33773406573E+02 0.33820755607E+02 0.33428360700E+02 0.32703518109E+02 0.31905025738E+02
 0.31320329072E+02 0.31137428296E+02 0.31366281361E+02 0.31838878323E+02 0.32287045961E+02
 0.31839703041E+02 0.31745380010E+02 0.31524681472E+02 0.31330077227E+02 0.31320329072E+02
 0.31571658348E+02 0.32028179468E+02 0.32515817383E+02 0.32816028058E+02 0.32768382567E+02
 0.32356077627E+02 0.31737330844E+02 0.31213749547E+02 0.31153396298E+02 0.31898259866E+02
 0.33688810058E+02 0.36637246296E+02 0.40780143929E+02 0.46207294470E+02 0.53074434467E+02
 0.61585196904E+02 0.71889591162E+02 0.83884918752E+02 0.97056056720E+02 0.11060972945E+03
 0.12335335137E+03 0.13396796671E+03 0.14156624681E+03 0.14608604360E+03 0.14820496159E+03
 0.14878337360E+03 0.14820496159E+03 0.14608604360E+03 0.14156624681E+03 0.13396796671E+03
 0.12335335137E+03 0.11060972945E+03 0.97056056720E+02 0.83884918752E+02 0.71889591162E+02
 0.61585196904E+02 0.53074434467E+02 0.46207294470E+02 0.40780143929E+02 0.36637246296E+02
 0.33688810058E+02 0.31898259866E+02 0.31153396298E+02 0.31213749547E+02 0.31737330844E+02
 0.32356077627E+02 0.32768382567E+02 0.32816028058E+02 0.32515817383E+02 0.32028179468E+02
 0.31571658348E+02 0.31320329072E+02 0.31330077227E+02 0.31524681472E+02 0.31745380010E+02
 0.32122754226E+02 0.32076588616E+02 0.31972189473E+02 0.31890287958E+02 0.31905025738E+02
 0.32028179468E+02 0.32183509858E+02 0.32230027289E+02 0.32027080443E+02 0.31510481416E+02
 0.30742725083E+02 0.29915816357E+02 0.29310073938E+02 0.29229102085E+02 0.29933798952E+02
 0.31594490068E+02 0.34277573621E+02 0.38006070204E+02 0.42835080050E+02 0.48855961989E+02
 0.56211342930E+02 0.65040153332E+02 0.75342536029E+02 0.86813201002E+02 0.98832935023E+02
 0.11060972945E+03 0.12117073409E+03 0.12965644812E+03 0.13560987122E+03 0.13902592655E+03
 0.14012377157E+03 0.13902592655E+03 0.13560987122E+03 0.12965644812E+03 0.12117073409E+03
 0.11060972945E+03 0.98832935023E+02 0.86813201002E+02 0.75342536029E+02 0.65040153332E+02
 0.56211342930E+02 0.48855961989E+02 0.42835080050E+02 0.38006070204E+02 0.34277573621E+02
 0.31594490068E+02 0.29933798952E+02 0.29229102085E+02 0.29310073938E+02 0.29915816357E+02
 0.30742725083E+02 0.31510481416E+02 0.32027080443E+02 0.32230027289E+02 0.32183509858E+02
 0.32028179468E+02 0.31905025738E+02 0.31890287958E+02 0.31972189473E+02 0.32076588616E+02
 0.33155927252E+02 0.33114460913E+02 0.33004946267E+02 0.32860502433E+02 0.32703518109E+02
 0.32515817383E+02 0.32230027289E+02 0.31755659797E+02 0.31031535154E+02 0.30076642572E+02
 0.29011194038E+02 0.28038561506E+02 0.27400504729E+02 0.27326843275E+02 0.27995443098E+02
 0.29509579837E+02 0.31901382842E+02 0.35196497468E+02 0.39422413560E+02 0.44621971651E+02
 0.50878755636E+02 0.58293644159E+02 0.66900856357E+02 0.76549501871E+02 0.86813201002E+02
 0.97056056720E+02 0.10658004148E+03 0.11466203810E+03 0.12072598608E+03 0.12444198663E+03
 0.12568800284E+03 0.12444198663E+03 0.12072598608E+03 0.11466203810E+03 0.10658004148E+03
 0.97056056720E+02 0.86813201002E+02 0.76549501871E+02 0.66900856357E+02 0.58293644159E+02
 0.50878755636E+02 0.44621971651E+02 0.39422413560E+02 0.35196497468E+02 0.31901382842E+02
 0.29509579837E+02 0.27995443098E+02 0.27326843275E+02 0.27400504729E+02 0.28038561506E+02
 0.29011194038E+02 0.30076642572E+02 0.31031535154E+02 0.31755659797E+02 0.32230027289E+02
 0.32515817383E+02 0.32703518109E+02 0.32860502433E+02 0.33004946267E+02 0.33114460913E+02
 0.34526271877E+02 0.34453745567E+02 0.34241018288E+02 0.33898129974E+02 0.33428360700E+02
 0.32816028058E+02 0.32027080443E+02 0.31031535154E+02 0.29840377378E+02 0.28534417038E+02
 0.27264830108E+02 0.26223895165E+02 0.25602748322E+02 0.25556342930E+02 0.26185597714E+02
 0.27535278057E+02 0.29624359671E+02 0.32481635870E+02 0.36118941514E+02 0.40550785893E+02
 0.45814531205E+02 0.51963536282E+02 0.59020448239E+02 0.66900856357E+02 0.75342536029E+02
 0.83884918752E+02 0.91935750651E+02 0.98915304443E+02 0.10429965714E+03 0.10768774275E+03
 0.10884252473E+03 0.10768774275E+03 0.10429965714E+03 0.98915304443E+02 0.91935750651E+02
 0.83884918752E+02 0.75342536029E+02 0.66900856357E+02 0.59020448239E+02 0.51963536282E+02
 0.45814531205E+02 0.40550785893E+02 0.36118941514E+02 0.32481635870E+02 0.29624359671E+02
 0.27535278057E+02 0.26185597714E+02 0.25556342930E+02 0.25602748322E+02 0.26223895165E+02
 0.27264830108E+02 0.28534417038E+02 0.29840377378E+02 0.31031535154E+02 0.32027080443E+02
 0.32816028058E+02 0.33428360700E+02 0.33898129974E+02 0.34241018288E+02 0.34453745567E+02
 0.35753760457E+02 0.35630046635E+02 0.35261414615E+02 0.34655034129E+02 0.33820755607E+02
 0.32768382567E+02 0.31510481416E+02 0.30076642572E+02 0.28534417038E+02 0.27001141901E+02
 0.25633177302E+02 0.24594681473E+02 0.24022541223E+02 0.24004850884E+02 0.24578978269E+02
 0.25749204372E+02 0.27537611198E+02 0.29965932146E+02 0.33042477057E+02 0.36771746843E+02
 0.41163369761E+02 0.46229862907E+02 0.51963536282E+02 0.58293644159E+02 0.65040153332E+02
 0.71889591162E+02 0.78412985192E+02 0.84126386391E+02 0.88572514028E+02 0.91393115651E+02
 0.92359710510E+02 0.91393115651E+02 0.88572514028E+02 0.84126386391E+02 0.78412985192E+02
 0.71889591162E+02 0.65040153332E+02 0.58293644159E+02 0.51963536282E+02 0.46229862907E+02
 0.41163369761E+02 0.36771746843E+02 0.33042477057E+02 0.29965932146E+02 0.27537611198E+02
 0.25749204372E+02 0.24578978269E+02 0.24004850884E+02 0.24022541223E+02 0.24594681473E+02
 0.25633177302E+02 0.27001141901E+02 0.28534417038E+02 0.30076642572E+02 0.31510481416E+02
 0.32768382567E+02 0.33820755607E+02 0.34655034129E+02 0.35261414615E+02 0.35630046635E+02
 0.36501712066E+02 0.36323909844E+02 0.35795894834E+02 0.34935196607E+02 0.33773406573E+02
 0.32356077627E+02 0.30742725083E+02 0.29011194038E+02 0.27264830108E+02 0.25633177302E+02
 0.24257888317E+02 0.23266361738E+02 0.22746174272E+02 0.22733729393E+02 0.23222375406E+02
 0.24207631043E+02 0.25703786348E+02 0.27723428233E+02 0.30276975940E+02 0.33370602704E+02
 0.37003563102E+02 0.41163369761E+02 0.45814531205E+02 0.50878755636E+02 0.56211342930E+02
 0.61585196904E+02 0.66694800832E+02 0.71185564149E+02 0.74702839848E+02 0.76946665420E+02
 0.77717810001E+02 0.76946665420E+02 0.74702839848E+02 0.71185564149E+02 0.66694800832E+02
 0.61585196904E+02 0.56211342930E+02 0.50878755636E+02 0.45814531205E+02 0.41163369761E+02
 0.37003563102E+02 0.33370602704E+02 0.30276975940E+02 0.27723428233E+02 0.25703786348E+02
 0.24207631043E+02 0.23222375406E+02 0.22733729393E+02 0.22746174272E+02 0.23266361738E+02
 0.24257888317E+02 0.25633177302E+02 0.27264830108E+02 0.29011194038E+02 0.30742725083E+02
 0.32356077627E+02 0.33773406573E+02 0.34935196607E+02 0.35795894834E+02 0.36323909844E+02
 0.36720432337E+02 0.36498558619E+02 0.35843746104E+02 0.34789662020E+02 0.33394199906E+02
 0.31737330844E+02 0.29915816357E+02 0.28038561506E+02 0.26223895165E+02 0.24594681473E+02
 0.23266361738E+02 0.22329007912E+02 0.21831434092E+02 0.21776690421E+02 0.22148615707E+02
 0.22942937934E+02 0.24157072971E+02 0.25796096752E+02 0.27872273901E+02 0.30397102294E+02
 0.33370602704E+02 0.36771746843E+02 0.40550785893E+02 0.44621971651E+02 0.48855961989E+02
 0.53074434467E+02 0.57052257267E+02 0.60532282383E+02 0.63253870334E+02 0.64990545728E+02
 0.65587741772E+02 0.64990545728E+02 0.63253870334E+02 0.60532282383E+02 0.57052257267E+02
 0.53074434467E+02 0.48855961989E+02 0.44621971651E+02 0.40550785893E+02 0.36771746843E+02
 0.33370602704E+02 0.30397102294E+02 0.27872273901E+02 0.25796096752E+02 0.24157072971E+02
 0.22942937934E+02 0.22148615707E+02 0.21776690421E+02 0.21831434092E+02 0.22329007912E+02
 0.23266361738E+02 0.24594681473E+02 0.26223895165E+02 0.28038561506E+02 0.29915816357E+02
 0.31737330844E+02 0.33394199906E+02 0.34789662020E+02 0.35843746104E+02 0.36498558619E+02
 0.36671770869E+02 0.36421037590E+02 0.35685340849E+02 0.34514209231E+02 0.32988445896E+02
 0.31213749547E+02 0.29310073938E+02 0.27400504729E+02 0.25602748322E+02 0.24022541223E+02
 0.22746174272E+02 0.21831434092E+02 0.21300346171E+02 0.21150645790E+02 0.21377804943E+02
 0.21967630803E+02 0.22907684904E+02 0.24197092458E+02 0.25847087645E+02 0.27872273901E+02
 0.30276975940E+02 0.33042477057E+02 0.36118941514E+02 0.39422413560E+02 0.42835080050E+02
 0.46207294470E+02 0.49362054730E+02 0.52104721019E+02 0.54240661083E+02 0.55600446657E+02
 0.56067582447E+02 0.55600446657E+02 0.54240661083E+02 0.52104721019E+02 0.49362054730E+02
 0.46207294470E+02 0.42835080050E+02 0.39422413560E+02 0.36118941514E+02 0.33042477057E+02
 0.30276975940E+02 0.27872273901E+02 0.25847087645E+02 0.24197092458E+02 0.22907684904E+02
 0.21967630803E+02 0.21377804943E+02 0.21150645790E+02 0.21300346171E+02 0.21831434092E+02
 0.22746174272E+02 0.24022541223E+02 0.25602748322E+02 0.27400504729E+02 0.29310073938E+02
 0.31213749547E+02 0.32988445896E+02 0.34514209231E+02 0.35685340849E+02 0.36421037590E+02
 0.36839673365E+02 0.36572563639E+02 0.35792331041E+02 0.34560644443E+02 0.32974075690E+02
 0.31153396298E+02 0.29229102085E+02 0.27326843275E+02 0.25556342930E+02 0.24004850884E+02
 0.22733729393E+02 0.21776690421E+02 0.21150645790E+02 0.20865433013E+02 0.20914129211E+02
 0.21280525161E+02 0.21950313703E+02 0.22919724164E+02 0.24197092458E+02 0.25796096752E+02
 0.27723428233E+02 0.29965932146E+02 0.32481635870E+02 0.35196497468E+02 0.38006070204E+02
 0.40780143929E+02 0.43369234764E+02 0.45613665737E+02 0.47357074618E+02 0.48464921810E+02
 0.48845151876E+02 0.48464921810E+02 0.47357074618E+02 0.45613665737E+02 0.43369234764E+02
 0.40780143929E+02 0.38006070204E+02 0.35196497468E+02 0.32481635870E+02 0.29965932146E+02
 0.27723428233E+02 0.25796096752E+02 0.24197092458E+02 0.22919724164E+02 0.21950313703E+02
 0.21280525161E+02 0.20914129211E+02 0.20865433013E+02 0.21150645790E+02 0.21776690421E+02
 0.22733729393E+02 0.24004850884E+02 0.25556342930E+02 0.27326843275E+02 0.29229102085E+02
 0.31153396298E+02 0.32974075690E+02 0.34560644443E+02 0.35792331041E+02 0.36572563639E+02
 0.37769348742E+02 0.37490397680E+02 0.36677735039E+02 0.35400786200E+02 0.33765072815E+02
 0.31898259866E+02 0.29933798952E+02 0.27995443098E+02 0.26185597714E+02 0.24578978269E+02
 0.23222375406E+02 0.22148615707E+02 0.21377804943E+02 0.20914129211E+02 0.20750235340E+02
 0.20873720935E+02 0.21274495244E+02 0.21950313703E+02 0.22907684904E+02 0.24157072971E+02
 0.25703786348E+02 0.27537611198E+02 0.29624359671E+02 0.31901382842E+02 0.34277573621E+02
 0.36637246296E+02 0.38847673861E+02 0.40768628021E+02 0.42262957869E+02 0.43213202831E+02
 0.43539426830E+02 0.43213202831E+02 0.42262957869E+02 0.40768628021E+02 0.38847673861E+02
 0.36637246296E+02 0.34277573621E+02 0.31901382842E+02 0.29624359671E+02 0.27537611198E+02
 0.25703786348E+02 0.24157072971E+02 0.22907684904E+02 0.21950313703E+02 0.21274495244E+02
 0.20873720935E+02 0.20750235340E+02 0.20914129211E+02 0.21377804943E+02 0.22148615707E+02
 0.23222375406E+02 0.24578978269E+02 0.26185597714E+02 0.27995443098E+02 0.29933798952E+02
 0.31898259866E+02 0.33765072815E+02 0.35400786200E+02 0.36677735039E+02 0.37490397680E+02
 0.39908375090E+02 0.39612716416E+02 0.38751970148E+02 0.37400496282E+02 0.35669058506E+02
 0.33688810058E+02 0.31594490068E+02 0.29509579837E+02 0.27535278057E+02 0.25749204372E+02
 0.24207631043E+02 0.22942937934E+02 0.21967630803E+02 0.21280525161E+02 0.20873720935E+02
 0.20739209174E+02 0.20873720935E+02 0.21280525161E+02 0.21967630803E+02 0.22942937934E+02
 0.24207631043E+02 0.25749204372E+02 0.27535278057E+02 0.29509579837E+02 0.31594490068E+02
 0.33688810058E+02 0.35669058506E+02 0.37400496282E+02 0.38751970148E+02 0.39612716416E+02
 0.39908375090E+02 0.39612716416E+02 0.38751970148E+02 0.37400496282E+02 0.35669058506E+02
 0.33688810058E+02 0.31594490068E+02 0.29509579837E+02 0.27535278057E+02 0.25749204372E+02
 0.24207631043E+02 0.22942937934E+02 0.21967630803E+02 0.21280525161E+02 0.20873720935E+02
 0.20739209174E+02 0.20873720935E+02 0.21280525161E+02 0.21967630803E+02 0.22942937934E+02
 0.24207631043E+02 0.25749204372E+02 0.27535278057E+02 0.29509579837E+02 0.31594490068E+02
 0.33688810058E+02 0.35669058506E+02 0.37400496282E+02 0.38751970148E+02 0.39612716416E+02
 0.43539426830E+02 0.43213202831E+02 0.42262957869E+02 0.40768628021E+02 0.38847673861E+02
 0.36637246296E+02 0.34277573621E+02 0.31901382842E+02 0.29624359671E+02 0.27537611198E+02
 0.25703786348E+02 0.24157072971E+02 0.22907684904E+02 0.21950313703E+02 0.21274495244E+02
 0.20873720935E+02 0.20750235340E+02 0.20914129211E+02 0.21377804943E+02 0.22148615707E+02
 0.23222375406E+02 0.24578978269E+02 0.26185597714E+02 0.27995443098E+02 0.29933798952E+02
 0.31898259866E+02 0.33765072815E+02 0.35400786200E+02 0.36677735039E+02 0.37490397680E+02
 0.37769348742E+02 0.37490397680E+02 0.36677735039E+02 0.35400786200E+02 0.33765072815E+02
 0.31898259866E+02 0.29933798952E+02 0.27995443098E+02 0.26185597714E+02 0.24578978269E+02
 0.23222375406E+02 0.22148615707E+02 0.21377804943E+02 0.20914129211E+02 0.20750235340E+02
 0.20873720935E+02 0.21274495244E+02 0.21950313703E+02 0.22907684904E+02 0.24157072971E+02
 0.25703786348E+02 0.27537611198E+02 0.29624359671E+02 0.31901382842E+02 0.34277573621E+02
 0.36637246296E+02 0.38847673861E+02 0.40768628021E+02 0.42262957869E+02 0.43213202831E+02
 0.48845151876E+02 0.48464921810E+02 0.47357074618E+02 0.45613665737E+02 0.43369234764E+02
 0.40780143929E+02 0.38006070204E+02 0.35196497468E+02 0.32481635870E+02 0.29965932146E+02
 0.27723428233E+02 0.25796096752E+02 0.24197092458E+02 0.22919724164E+02 0.21950313703E+02
 0.21280525161E+02 0.20914129211E+02 0.20865433013E+02 0.21150645790E+02 0.21776690421E+02
 0.22733729393E+02 0.24004850884E+02 0.25556342930E+02 0.27326843275E+02 0.29229102085E+02
 0.31153396298E+02 0.32974075690E+02 0.34560644443E+02 0.35792331041E+02 0.36572563639E+02
 0.36839673365E+02 0.36572563639E+02 0.35792331041E+02 0.34560644443E+02 0.32974075690E+02
 0.31153396298E+02 0.29229102085E+02 0.27326843275E+02 0.25556342930E+02 0.24004850884E+02
 0.22733729393E+02 0.21776690421E+02 0.21150645790E+02 0.20865433013E+02 0.20914129211E+02
 0.21280525161E+02 0.21950313703E+02 0.22919724164E+02 0.24197092458E+02 0.25796096752E+02
 0.27723428233E+02 0.29965932146E+02 0.32481635870E+02 0.35196497468E+02 0.38006070204E+02
 0.40780143929E+02 0.43369234764E+02 0.45613665737E+02 0.47357074618E+02 0.48464921810E+02
 0.56067582447E+02 0.55600446657E+02 0.54240661083E+02 0.52104721019E+02 0.49362054730E+02
 0.46207294470E+02 0.42835080050E+02 0.39422413560E+02 0.36118941514E+02 0.33042477057E+02
 0.30276975940E+02 0.27872273901E+02 0.25847087645E+02 0.24197092458E+02 0.22907684904E+02
 0.21967630803E+02 0.21377804943E+02 0.21150645790E+02 0.21300346171E+02 0.21831434092E+02
 0.22746174272E+02 0.24022541223E+02 0.25602748322E+02 0.27400504729E+02 0.29310073938E+02
 0.31213749547E+02 0.32988445896E+02 0.34514209231E+02 0.35685340849E+02 0.36421037590E+02
 0.36671770869E+02 0.36421037590E+02 0.35685340849E+02 0.34514209231E+02 0.32988445896E+02
 0.31213749547E+02 0.29310073938E+02 0.27400504729E+02 0.25602748322E+02 0.24022541223E+02
 0.22746174272E+02 0.21831434092E+02 0.21300346171E+02 0.21150645790E+02 0.21377804943E+02
 0.21967630803E+02 0.22907684904E+02 0.24197092458E+02 0.25847087645E+02 0.27872273901E+02
 0.30276975940E+02 0.33042477057E+02 0.36118941514E+02 0.39422413560E+02 0.42835080050E+02
 0.46207294470E+02 0.49362054730E+02 0.52104721019E+02 0.54240661083E+02 0.55600446657E+02
 0.65587741772E+02 0.64990545728E+02 0.63253870334E+02 0.60532282383E+02 0.57052257267E+02
 0.53074434467E+02 0.48855961989E+02 0.44621971651E+02 0.40550785893E+02 0.36771746843E+02
 0.33370602704E+02 0.30397102294E+02 0.27872273901E+02 0.25796096752E+02 0.24157072971E+02
 0.22942937934E+02 0.22148615707E+02 0.21776690421E+02 0.21831434092E+02 0.22329007912E+02
 0.23266361738E+02 0.24594681473E+02 0.26223895165E+02 0.28038561506E+02 0.29915816357E+02
 0.31737330844E+02 0.33394199906E+02 0.34789662020E+02 0.35843746104E+02 0.36498558619E+02
 0.36720432337E+02 0.36498558619E+02 0.35843746104E+02 0.34789662020E+02 0.33394199906E+02
 0.31737330844E+02 0.29915816357E+02 0.28038561506E+02 0.26223895165E+02 0.24594681473E+02
 0.23266361738E+02 0.22329007912E+02 0.21831434092E+02 0.21776690421E+02 0.22148615707E+02
 0.22942937934E+02 0.24157072971E+02 0.25796096752E+02 0.27872273901E+02 0.30397102294E+02
 0.33370602704E+02 0.36771746843E+02 0.40550785893E+02 0.44621971651E+02 0.48855961989E+02
 0.53074434467E+02 0.57052257267E+02 0.60532282383E+02 0.63253870334E+02 0.64990545728E+02
 0.77717810001E+02 0.76946665420E+02 0.74702839848E+02 0.71185564149E+02 0.66694800832E+02
 0.61585196904E+02 0.56211342930E+02 0.50878755636E+02 0.45814531205E+02 0.41163369761E+02
 0.37003563102E+02 0.33370602704E+02 0.30276975940E+02 0.27723428233E+02 0.25703786348E+02
 0.24207631043E+02 0.23222375406E+02 0.22733729393E+02 0.22746174272E+02 0.23266361738E+02
 0.24257888317E+02 0.25633177302E+02 0.27264830108E+02 0.29011194038E+02 0.30742725083E+02
 0.32356077627E+02 0.33773406573E+02 0.34935196607E+02 0.35795894834E+02 0.36323909844E+02
 0.36501712066E+02 0.36323909844E+02 0.35795894834E+02 0.34935196607E+02 0.33773406573E+02
 0.32356077627E+02 0.30742725083E+02 0.29011194038E+02 0.27264830108E+02 0.25633177302E+02
 0.24257888317E+02 0.23266361738E+02 0.22746174272E+02 0.22733729393E+02 0.23222375406E+02
 0.24207631043E+02 0.25703786348E+02 0.27723428233E+02 0.30276975940E+02 0.33370602704E+02
 0.37003563102E+02 0.41163369761E+02 0.45814531205E+02 0.50878755636E+02 0.56211342930E+02
 0.61585196904E+02 0.66694800832E+02 0.71185564149E+02 0.74702839848E+02 0.76946665420E+02
 0.92359710510E+02 0.91393115651E+02 0.88572514028E+02 0.84126386391E+02 0.78412985192E+02
 0.71889591162E+02 0.65040153332E+02 0.58293644159E+02 0.51963536282E+02 0.46229862907E+02
 0.41163369761E+02 0.36771746843E+02 0.33042477057E+02 0.29965932146E+02 0.27537611198E+02
 0.25749204372E+02 0.24578978269E+02 0.24004850884E+02 0.24022541223E+02 0.24594681473E+02
 0.25633177302E+02 0.27001141901E+02 0.28534417038E+02 0.30076642572E+02 0.31510481416E+02
 0.32768382567E+02 0.33820755607E+02 0.34655034129E+02 0.35261414615E+02 0.35630046635E+02
 0.35753760457E+02 0.35630046635E+02 0.35261414615E+02 0.34655034129E+02 0.33820755607E+02
 0.32768382567E+02 0.31510481416E+02 0.30076642572E+02 0.28534417038E+02 0.27001141901E+02
 0.25633177302E+02 0.24594681473E+02 0.24022541223E+02 0.24004850884E+02 0.24578978269E+02
 0.25749204372E+02 0.27537611198E+02 0.29965932146E+02 0.33042477057E+02 0.36771746843E+02
 0.41163369761E+02 0.46229862907E+02 0.51963536282E+02 0.58293644159E+02 0.65040153332E+02
 0.71889591162E+02 0.78412985192E+02 0.84126386391E+02 0.88572514028E+02 0.91393115651E+02
 0.10884252473E+03 0.10768774275E+03 0.10429965714E+03 0.98915304443E+02 0.91935750651E+02
 0.83884918752E+02 0.75342536029E+02 0.66900856357E+02 0.59020448239E+02 0.51963536282E+02
 0.45814531205E+02 0.40550785893E+02 0.36118941514E+02 0.32481635870E+02 0.29624359671E+02
 0.27535278057E+02 0.26185597714E+02 0.25556342930E+02 0.25602748322E+02 0.26223895165E+02
 0.27264830108E+02 0.28534417038E+02 0.29840377378E+02 0.31031535154E+02 0.32027080443E+02
 0.32816028058E+02 0.33428360700E+02 0.33898129974E+02 0.34241018288E+02 0.34453745567E+02
 0.34526271877E+02 0.34453745567E+02 0.34241018288E+02 0.33898129974E+02 0.33428360700E+02
 0.32816028058E+02 0.32027080443E+02 0.31031535154E+02 0.29840377378E+02 0.28534417038E+02
 0.27264830108E+02 0.26223895165E+02 0.25602748322E+02 0.25556342930E+02 0.26185597714E+02
 0.27535278057E+02 0.29624359671E+02 0.32481635870E+02 0.36118941514E+02 0.40550785893E+02
 0.45814531205E+02 0.51963536282E+02 0.59020448239E+02 0.66900856357E+02 0.75342536029E+02
 0.83884918752E+02 0.91935750651E+02 0.98915304443E+02 0.10429965714E+03 0.10768774275E+03
 0.12568800284E+03 0.12444198663E+03 0.12072598608E+03 0.11466203810E+03 0.10658004148E+03
 0.97056056720E+02 0.86813201002E+02 0.76549501871E+02 0.66900856357E+02 0.58293644159E+02
 0.50878755636E+02 0.44621971651E+02 0.39422413560E+02 0.35196497468E+02 0.31901382842E+02
 0.29509579837E+02 0.27995443098E+02 0.27326843275E+02 0.27400504729E+02 0.28038561506E+02
 0.29011194038E+02 0.30076642572E+02 0.31031535154E+02 0.31755659797E+02 0.32230027289E+02
 0.32515817383E+02 0.32703518109E+02 0.32860502433E+02 0.33004946267E+02 0.33114460913E+02
 0.33155927252E+02 0.33114460913E+02 0.33004946267E+02 0.32860502433E+02 0.32703518109E+02
 0.32515817383E+02 0.32230027289E+02 0.31755659797E+02 0.31031535154E+02 0.30076642572E+02
 0.29011194038E+02 0.28038561506E+02 0.27400504729E+02 0.27326843275E+02 0.27995443098E+02
 0.29509579837E+02 0.31901382842E+02 0.35196497468E+02 0.39422413560E+02 0.44621971651E+02
 0.50878755636E+02 0.58293644159E+02 0.66900856357E+02 0.76549501871E+02 0.86813201002E+02
 0.97056056720E+02 0.10658004148E+03 0.11466203810E+03 0.12072598608E+03 0.12444198663E+03
 0.14012377157E+03 0.13902592655E+03 0.13560987122E+03 0.12965644812E+03 0.12117073409E+03
 0.11060972945E+03 0.98832935023E+02 0.86813201002E+02 0.75342536029E+02 0.65040153332E+02
 0.56211342930E+02 0.48855961989E+02 0.42835080050E+02 0.38006070204E+02 0.34277573621E+02
 0.31594490068E+02 0.29933798952E+02 0.29229102085E+02 0.29310073938E+02 0.29915816357E+02
 0.30742725083E+02 0.31510481416E+02 0.32027080443E+02 0.32230027289E+02 0.32183509858E+02
 0.32028179468E+02 0.31905025738E+02 0.31890287958E+02 0.31972189473E+02 0.32076588616E+02
 0.32122754226E+02 0.32076588616E+02 0.31972189473E+02 0.31890287958E+02 0.31905025738E+02
 0.32028179468E+02 0.32183509858E+02 0.32230027289E+02 0.32027080443E+02 0.31510481416E+02
 0.30742725083E+02 0.29915816357E+02 0.29310073938E+02 0.29229102085E+02 0.29933798952E+02
 0.31594490068E+02 0.34277573621E+02 0.38006070204E+02 0.42835080050E+02 0.48855961989E+02
 0.56211342930E+02 0.65040153332E+02 0.75342536029E+02 0.86813201002E+02 0.98832935023E+02
 0.11060972945E+03 0.12117073409E+03 0.12965644812E+03 0.13560987122E+03 0.13902592655E+03
 0.14878337360E+03 0.14820496159E+03 0.14608604360E+03 0.14156624681E+03 0.13396796671E+03
 0.12335335137E+03 0.11060972945E+03 0.97056056720E+02 0.83884918752E+02 0.71889591162E+02
 0.61585196904E+02 0.53074434467E+02 0.46207294470E+02 0.40780143929E+02 0.36637246296E+02
 0.33688810058E+02 0.31898259866E+02 0.31153396298E+02 0.31213749547E+02 0.31737330844E+02
 0.32356077627E+02 0.32768382567E+02 0.32816028058E+02 0.32515817383E+02 0.32028179468E+02
 0.31571658348E+02 0.31320329072E+02 0.31330077227E+02 0.31524681472E+02 0.31745380010E+02
 0.31839703041E+02 0.31745380010E+02 0.31524681472E+02 0.31330077227E+02 0.31320329072E+02
 0.31571658348E+02 0.32028179468E+02 0.32515817383E+02 0.32816028058E+02 0.32768382567E+02
 0.32356077627E+02 0.31737330844E+02 0.31213749547E+02 0.31153396298E+02 0.31898259866E+02
 0.33688810058E+02 0.36637246296E+02 0.40780143929E+02 0.46207294470E+02 0.53074434467E+02
 0.61585196904E+02 0.71889591162E+02 0.83884918752E+02 0.97056056720E+02 0.11060972945E+03
 0.12335335137E+03 0.13396796671E+03 0.14156624681E+03 0.14608604360E+03 0.14820496159E+03
 0.14933199019E+03 0.14968040754E+03 0.14997294416E+03 0.14842154497E+03 0.14330184369E+03
 0.13396796671E+03 0.12117073409E+03 0.10658004148E+03 0.91935750651E+02 0.78412985192E+02
 0.66694800832E+02 0.57052257267E+02 0.49362054730E+02 0.43369234764E+02 0.38847673861E+02
 0.35669058506E+02 0.33765072815E+02 0.32974075690E+02 0.32988445896E+02 0.33394199906E+02
 0.33773406573E+02 0.33820755607E+02 0.33428360700E+02 0.32703518109E+02 0.31905025738E+02
 0.31320329072E+02 0.31137428296E+02 0.31366281361E+02 0.31838878323E+02 0.32287045961E+02
 0.32468771481E+02 0.32287045961E+02 0.31838878323E+02 0.31366281361E+02 0.31137428296E+02
 0.31320329072E+02 0.31905025738E+02 0.32703518109E+02 0.33428360700E+02 0.33820755607E+02
 0.33773406573E+02 0.33394199906E+02 0.32988445896E+02 0.32974075690E+02 0.33765072815E+02
 0.35669058506E+02 0.38847673861E+02 0.43369234764E+02 0.49362054730E+02 0.57052257267E+02
 0.66694800832E+02 0.78412985192E+02 0.91935750651E+02 0.10658004148E+03 0.12117073409E+03
 0.13396796671E+03 0.14330184369E+03 0.14842154497E+03 0.14997294416E+03 0.14968040754E+03