    8    8   50    1
  0.1138749E+02  0.4499587E-09  0.4499587E-09  0.4499587E-09  0.5000000E-15
  1.000000000000000E-004
  CAR 
 unknown system                          
   36   20   23
 
  0.6250000E-01  0.6250000E-01  0.6250000E-01  0.1562500E-01
   1       -6.103355
   2       -4.046266
   3       -4.046266
   4       -4.046266
   5        3.738289
   6        3.738289
   7        3.738289
   8        3.976455
   9        3.976455
  10        3.976455
  11        6.472002
  12        6.472002
  13        6.472002
  14        6.584686
  15        6.740004
  16        6.740004
  17        6.740004
  18        6.925449
  19        6.925449
  20        7.665528
  21        7.665528
  22        8.392223
  23        9.954926
 
  0.1875000E+00  0.6250000E-01  0.6250000E-01  0.4687500E-01
   1       -5.837931
   2       -3.996027
   3       -3.849301
   4       -3.849301
   5        3.155633
   6        3.602022
   7        3.602022
   8        3.783043
   9        3.783043
  10        4.130600
  11        5.445543
  12        5.445543
  13        5.556838
  14        6.141679
  15        6.313824
  16        6.374201
  17        6.627465
  18        7.194069
  19        7.301450
  20        7.301450
  21        8.486408
  22        9.030457
  23       10.185308
 
  0.3125000E+00  0.6250000E-01  0.6250000E-01  0.4687500E-01
   1       -5.354877
   2       -4.011053
   3       -3.532957
   4       -3.532957
   5        2.533634
   6        3.300773
   7        3.300773
   8        3.625475
   9        3.625475
  10        4.068391
  11        4.347713
  12        4.347713
  13        4.416953
  14        5.637919
  15        6.024888
  16        6.092167
  17        6.464171
  18        6.815513
  19        8.288107
  20        8.288107
  21        9.254890
  22       10.023011
  23       10.695902
 
  0.4375000E+00  0.6250000E-01  0.6250000E-01  0.4687500E-01
   1       -4.766237
   2       -4.259945
   3       -3.272168
   4       -3.272168
   5        2.391991
   6        2.935465
   7        2.935465
   8        2.937634
   9        3.534769
  10        3.534769
  11        3.834134
  12        3.834134
  13        4.798553
  14        5.214869
  15        5.880992
  16        5.920002
  17        6.381161
  18        6.493760
  19        9.442018
  20        9.442018
  21        9.861566
  22       10.360614
  23       10.592663
 
  0.1875000E+00  0.1875000E+00  0.6250000E-01  0.4687500E-01
   1       -5.576385
   2       -3.788429
   3       -3.788429
   4       -3.655997
   5        2.986979
   6        2.986979
   7        3.172464
   8        3.682917
   9        3.888523
  10        3.888523
  11        5.038459
  12        5.276066
  13        5.393579
  14        5.393579
  15        5.500161
  16        5.663777
  17        7.229713
  18        7.229713
  19        7.265417
  20        7.641323
  21        8.552561
  22        9.196985
  23       11.051967
 
  0.3125000E+00  0.1875000E+00  0.6250000E-01  0.9375000E-01
   1       -5.099610
   2       -3.785740
   3       -3.447253
   4       -3.348108
   5        2.361539
   6        2.626997
   7        2.642040
   8        3.586363
   9        3.659589
  10        3.846613
  11        4.072481
  12        4.429896
  13        4.518314
  14        4.970546
  15        5.240124
  16        5.243633
  17        7.151575
  18        7.594960
  19        8.154224
  20        8.241152
  21        9.302649
  22        9.934687
  23       11.434113
 
  0.4375000E+00  0.1875000E+00  0.6250000E-01  0.9375000E-01
   1       -4.517629
   2       -4.019591
   3       -3.146299
   4       -3.107517
   5        2.225710
   6        2.227593
   7        2.256698
   8        2.770035
   9        3.524439
  10        3.539940
  11        3.969034
  12        4.017273
  13        4.317387
  14        4.612751
  15        5.073366
  16        5.096334
  17        7.173495
  18        7.345565
  19        9.368759
  20        9.401953
  21       10.131408
  22       10.535344
  23       10.593902
 
  0.3125000E+00  0.3125000E+00  0.6250000E-01  0.4687500E-01
   1       -4.633724
   2       -3.399863
   3       -3.399863
   4       -3.063434
   5        1.959974
   6        2.019017
   7        2.019017
   8        3.269893
   9        3.531516
  10        3.752992
  11        3.752992
  12        4.188849
  13        4.259792
  14        4.318680
  15        4.318680
  16        4.611639
  17        8.206725
  18        8.206725
  19        8.246465
  20        8.766754
  21        9.759051
  22       10.254170
  23       11.135232
 
  0.4375000E+00  0.3125000E+00  0.6250000E-01  0.9375000E-01
   1       -4.065933
   2       -3.591355
   3       -3.015775
   4       -2.880397
   5        1.551430
   6        1.625958
   7        1.888096
   8        2.396811
   9        3.515900
  10        3.573856
  11        3.836825
  12        3.838147
  13        3.885524
  14        4.004719
  15        4.188001
  16        4.270335
  17        8.252345
  18        8.352346
  19        9.366166
  20        9.867025
  21       10.427719
  22       10.493072
  23       10.979499
 
  0.4375000E+00  0.4375000E+00  0.6250000E-01  0.4687500E-01
   1       -3.525759
   2       -3.110746
   3       -3.110746
   4       -2.821978
   5        1.229469
   6        1.436055
   7        1.436055
   8        1.813516
   9        3.559758
  10        3.594381
  11        3.594381
  12        3.600062
  13        3.615335
  14        3.725463
  15        3.725463
  16        3.900254
  17        9.112442
  18        9.339733
  19        9.339733
  20       10.126619
  21       10.729902
  22       10.745562
  23       11.272166
 
  0.1875000E+00  0.1875000E+00  0.1875000E+00  0.1562500E-01
   1       -5.319161
   2       -3.584318
   3       -3.584318
   4       -3.584318
   5        2.660411
   6        2.660411
   7        2.660411
   8        3.706972
   9        3.706972
  10        3.706972
  11        4.439635
  12        5.138616
  13        5.138616
  14        5.138616
  15        5.200376
  16        5.200376
  17        7.331824
  18        7.331824
  19        7.331824
  20        8.281771
  21        8.281771
  22        9.133237
  23       11.900815
 
  0.3125000E+00  0.1875000E+00  0.1875000E+00  0.4687500E-01
   1       -4.849245
   2       -3.563760
   3       -3.250623
   4       -3.250623
   5        2.097688
   6        2.160120
   7        2.160120
   8        3.499689
   9        3.564568
  10        3.564568
  11        3.791220
  12        4.425159
  13        4.425159
  14        4.531773
  15        4.919796
  16        4.947415
  17        7.389231
  18        8.087366
  19        8.218179
  20        8.218179
  21        9.191428
  22        9.748611
  23       11.514693
 
  0.4375000E+00  0.1875000E+00  0.1875000E+00  0.4687500E-01
   1       -4.273968
   2       -3.783262
   3       -2.967861
   4       -2.967861
   5        1.748872
   6        1.748872
   7        1.992963
   8        2.526032
   9        3.502443
  10        3.502443
  11        3.929147
  12        3.956237
  13        3.956237
  14        4.150837
  15        4.783158
  16        4.804186
  17        7.514945
  18        7.767199
  19        9.410545
  20        9.410545
  21       10.143351
  22       10.601729
  23       10.601729
 
  0.3125000E+00  0.3125000E+00  0.1875000E+00  0.4687500E-01
   1       -4.390880
   2       -3.183524
   3       -3.183524
   4       -2.937401
   5        1.560233
   6        1.649032
   7        1.649032
   8        2.851922
   9        3.484595
  10        3.556507
  11        3.556507
  12        4.060856
  13        4.077223
  14        4.259851
  15        4.259851
  16        4.378642
  17        8.295332
  18        8.295332
  19        8.777292
  20        8.844229
  21        9.351730
  22       10.120948
  23       11.328615
 
  0.4375000E+00  0.3125000E+00  0.1875000E+00  0.9375000E-01
   1       -3.829523
   2       -3.360589
   3       -2.811340
   4       -2.709569
   5        1.153910
   6        1.218046
   7        1.562775
   8        2.056693
   9        3.460133
  10        3.461268
  11        3.593763
  12        3.721365
  13        3.737716
  14        3.779789
  15        4.136857
  16        4.153868
  17        8.441272
  18        8.679987
  19        9.465836
  20        9.895393
  21       10.207644
  22       10.621230
  23       10.969596
 
  0.4375000E+00  0.4375000E+00  0.1875000E+00  0.4687500E-01
   1       -3.294403
   2       -2.884999
   3       -2.884999
   4       -2.612837
   5        0.849947
   6        1.066886
   7        1.066886
   8        1.451120
   9        3.420040
  10        3.420040
  11        3.471269
  12        3.472839
  13        3.486600
  14        3.670008
  15        3.670008
  16        3.775067
  17        9.561929
  18        9.577099
  19        9.577099
  20       10.227441
  21       10.470958
  22       10.616582
  23       10.964997
 
  0.3125000E+00  0.3125000E+00  0.3125000E+00  0.1562500E-01
   1       -3.944711
   2       -2.816782
   3       -2.816782
   4       -2.816782
   5        1.108731
   6        1.108731
   7        1.108731
   8        2.218300
   9        3.397750
  10        3.397750
  11        3.397750
  12        3.867745
  13        3.867745
  14        3.886455
  15        3.886455
  16        3.886455
  17        8.939069
  18        8.939069
  19        8.939069
  20        9.621441
  21        9.621441
  22       10.011953
  23       11.459050
 
  0.4375000E+00  0.3125000E+00  0.3125000E+00  0.4687500E-01
   1       -3.396203
   2       -2.946812
   3       -2.484943
   4       -2.484943
   5        0.667925
   6        0.667925
   7        1.042841
   8        1.508306
   9        3.340998
  10        3.340998
  11        3.359461
  12        3.486249
  13        3.538279
  14        3.538279
  15        3.749461
  16        3.761613
  17        9.112726
  18        9.390433
  19        9.938979
  20        9.938980
  21       10.521156
  22       10.874460
  23       11.011193
 
  0.4375000E+00  0.4375000E+00  0.3125000E+00  0.4687500E-01
   1       -2.871822
   2       -2.487290
   3       -2.487290
   4       -2.278878
   5        0.326240
   6        0.515768
   7        0.515768
   8        0.894720
   9        3.242057
  10        3.242057
  11        3.294398
  12        3.297835
  13        3.301673
  14        3.420336
  15        3.420336
  16        3.459445
  17       10.096901
  18       10.096901
  19       10.264241
  20       10.461972
  21       10.597608
  22       10.938450
  23       11.093682
 
  0.4375000E+00  0.4375000E+00  0.4375000E+00  0.1562500E-01
   1       -2.374149
   2       -2.094260
   3       -2.094260
   4       -2.094260
   5        0.033369
   6        0.033369
   7        0.033369
   8        0.313495
   9        3.138594
  10        3.138594
  11        3.138594
  12        3.183000
  13        3.183000
  14        3.187167
  15        3.187167
  16        3.187167
  17       10.773307
  18       10.773307
  19       10.773307
  20       10.911572
  21       10.911583
  22       11.172197
  23       11.172203
