       N       E                     dE             d eps       ncg     rms          rms(c)
DAV:   1    -0.889870378664E+02   -0.88987E+02   -0.16035E-05   754   0.172E-02    0.595E-03
DAV:   2    -0.889870366244E+02    0.12420E-05   -0.73130E-06   712   0.148E-02
   1 F= -.88987037E+02 E0= -.88987429E+02  d E =-.889870E+02
       N       E                     dE             d eps       ncg     rms          rms(c)
DAV:   1    -0.889453816588E+02    0.41656E-01   -0.46240E+00   920   0.159E+01    0.153E+00
DAV:   2    -0.888778806675E+02    0.67501E-01   -0.15767E-01  1136   0.210E+00    0.610E-01
DAV:   3    -0.888638685012E+02    0.14012E-01   -0.10361E-02  1060   0.602E-01    0.276E-01
DAV:   4    -0.888596284269E+02    0.42401E-02   -0.68202E-03  1087   0.414E-01    0.442E-02
DAV:   5    -0.888595840760E+02    0.44351E-04   -0.12852E-04   762   0.691E-02
   2 F= -.88859584E+02 E0= -.88859662E+02  d E =0.127453E+00
       N       E                     dE             d eps       ncg     rms          rms(c)
DAV:   1    -0.890575619842E+02   -0.19793E+00   -0.23019E+00   920   0.110E+01    0.108E+00
DAV:   2    -0.890219738843E+02    0.35588E-01   -0.75507E-02  1129   0.145E+00    0.436E-01
DAV:   3    -0.890143937800E+02    0.75801E-02   -0.75059E-03  1053   0.475E-01    0.174E-01
DAV:   4    -0.890123833828E+02    0.20104E-02   -0.34054E-03  1118   0.280E-01    0.457E-02
DAV:   5    -0.890123124777E+02    0.70905E-04   -0.15326E-04   642   0.677E-02
   3 F= -.89012312E+02 E0= -.89012646E+02  d E =-.152728E+00
       N       E                     dE             d eps       ncg     rms          rms(c)
DAV:   1    -0.890123343821E+02    0.49001E-04   -0.67742E-04   990   0.193E-01    0.199E-02
DAV:   2    -0.890123275728E+02    0.68093E-05   -0.28022E-05   509   0.349E-02
   4 F= -.89012328E+02 E0= -.89012650E+02  d E =-.150951E-04
