 vasp.5.2.12 11Nov11 complex                                                    
  
 executed on             LinuxIFC date 2012.10.26  00:33:39
 running on    1 nodes
 distr:  one band on    1 nodes,    1 groups


--------------------------------------------------------------------------------------------------------


 INCAR:
 POTCAR:   PAW_PBE C 08Apr2002                    
 POTCAR:    PAW_PBE Ta 17Jan2003                  
 POTCAR:   PAW_PBE C 08Apr2002                    
   VRHFIN =C: s2p2                                                              
   LEXCH  = PE                                                                  
   EATOM  =   147.1560 eV,   10.8157 Ry                                         
                                                                                
   TITEL  = PAW_PBE C 08Apr2002                                                 
   LULTRA =        F    use ultrasoft PP ?                                      
   IUNSCR =        0    unscreen: 0-lin 1-nonlin 2-no                           
   RPACOR =     .000    partial core radius                                     
   POMASS =   12.011; ZVAL   =    4.000    mass and valenz                      
   RCORE  =    1.500    outmost cutoff radius                                   
   RWIGS  =    1.630; RWIGS  =     .863    wigner-seitz radius (au A)           
   ENMAX  =  400.000; ENMIN  =  300.000 eV                                      
   ICORE  =        2    local potential                                         
   LCOR   =        T    correct aug charges                                     
   LPAW   =        T    paw PP                                                  
   EAUG   =  644.873                                                            
   DEXC   =     .000                                                            
   RMAX   =    2.266    core radius for proj-oper                               
   RAUG   =    1.300    factor for augmentation sphere                          
   RDEP   =    1.501    radius for radial grids                                 
   RDEPT  =    1.300    core radius for aug-charge                              
   QCUT   =   -5.516; QGAM   =   11.032    optimization parameters              
                                                                                
   Description                                                                  
     l     E      TYP  RCUT    TYP  RCUT                                        
     0   .000     23  1.200                                                     
     0   .000     23  1.200                                                     
     1   .000     23  1.500                                                     
     1  2.500     23  1.500                                                     
     2   .000      7  1.500                                                     
  local pseudopotential read in
  atomic valenz-charges read in
  non local Contribution for L=           0  read in
    real space projection operators read in
  non local Contribution for L=           0  read in
    real space projection operators read in
  non local Contribution for L=           1  read in
    real space projection operators read in
  non local Contribution for L=           1  read in
    real space projection operators read in
    PAW grid and wavefunctions read in
 
   number of l-projection  operators is LMAX  =           4
   number of lm-projection operators is LMMAX =           8
 
 POTCAR:    PAW_PBE Ta 17Jan2003                  
   VRHFIN =Ta:  6s5d                                                            
   LEXCH  = PE                                                                  
   EATOM  =   130.6506 eV,    9.6025 Ry                                         
                                                                                
   TITEL  = PAW_PBE Ta 17Jan2003                                                
   LULTRA =        F    use ultrasoft PP ?                                      
   IUNSCR =        1    unscreen: 0-lin 1-nonlin 2-no                           
   RPACOR =    2.330    partial core radius                                     
   POMASS =  180.948; ZVAL   =    5.000    mass and valenz                      
   RCORE  =    2.900    outmost cutoff radius                                   
   RWIGS  =    2.840; RWIGS  =    1.503    wigner-seitz radius (au A)           
   ENMAX  =  223.667; ENMIN  =  167.750 eV                                      
   RCLOC  =    2.205    cutoff for local pot                                    
   LCOR   =        T    correct aug charges                                     
   LPAW   =        T    paw PP                                                  
   EAUG   =  332.075                                                            
   DEXC   =    -.049                                                            
   RMAX   =    3.083    core radius for proj-oper                               
   RAUG   =    1.300    factor for augmentation sphere                          
   RDEP   =    3.060    radius for radial grids                                 
   QCUT   =   -4.055; QGAM   =    8.109    optimization parameters              
                                                                                
   Description                                                                  
     l     E      TYP  RCUT    TYP  RCUT                                        
     2   .000     23  2.500                                                     
     2   .000     23  2.500                                                     
     0   .000     23  2.500                                                     
     0   .000     23  2.500                                                     
     1   .000     23  2.900                                                     
     1  2.000     23  2.900                                                     
     3   .000      7   .000                                                     
  local pseudopotential read in
  partial core-charges read in
  atomic valenz-charges read in
  non local Contribution for L=           2  read in
    real space projection operators read in
  non local Contribution for L=           2  read in
    real space projection operators read in
  non local Contribution for L=           0  read in
    real space projection operators read in
  non local Contribution for L=           0  read in
    real space projection operators read in
  non local Contribution for L=           1  read in
    real space projection operators read in
  non local Contribution for L=           1  read in
    real space projection operators read in
    PAW grid and wavefunctions read in
 
   number of l-projection  operators is LMAX  =           6
   number of lm-projection operators is LMMAX =          18
 
 WARNING: PSMAXN for non-local potential too small
          PSMAXN should be >   14.0303017386150       NTYP=           2
 PAW_PBE C 08Apr2002                    :
 energy of atom  1       EATOM= -147.1560
 kinetic energy error for atom=    0.0022 (will be added to EATOM!!)
  PAW_PBE Ta 17Jan2003                  :
 energy of atom  2       EATOM= -130.6506
 kinetic energy error for atom=    0.0003 (will be added to EATOM!!)
 
 
 POSCAR:  C Ta                                   
  positions in cartesian coordinates
  No initial velocities read in
 exchange correlation table for  LEXCH =        8
   RHO(1)=    0.500       N(1)  =     2000
   RHO(2)=  100.500       N(2)  =     4000
 


--------------------------------------------------------------------------------------------------------


 ion  position               nearest neighbor table
   1  0.000  0.000  0.500-   5 2.25   6 2.25   7 2.25   5 2.25   6 2.25   7 2.25
   2  0.000  0.500  0.000-   5 2.25   6 2.25   8 2.25   6 2.25   5 2.25   8 2.25
   3  0.500  0.000  0.000-   5 2.25   7 2.25   8 2.25   7 2.25   8 2.25   5 2.25
   4  0.500  0.500  0.500-   6 2.25   7 2.25   8 2.25   8 2.25   7 2.25   6 2.25
   5  0.000  0.000  0.000-   1 2.25   2 2.25   3 2.25   1 2.25   2 2.25   3 2.25   6 3.18   6 3.18
                             7 3.18   7 3.18   6 3.18   8 3.18   6 3.18   8 3.18   7 3.18   8 3.18
   6  0.000  0.500  0.500-   1 2.25   2 2.25   4 2.25   2 2.25   1 2.25   4 2.25   5 3.18   5 3.18
                             8 3.18   7 3.18   5 3.18   7 3.18   5 3.18   8 3.18   7 3.18   8 3.18
   7  0.500  0.000  0.500-   1 2.25   3 2.25   4 2.25   3 2.25   4 2.25   1 2.25   5 3.18   5 3.18
                             8 3.18   6 3.18   6 3.18   8 3.18   8 3.18   8 3.18   5 3.18   6 3.18
   8  0.500  0.500  0.000-   2 2.25   3 2.25   4 2.25   4 2.25   3 2.25   2 2.25   5 3.18   6 3.18
                             7 3.18   6 3.18   5 3.18   7 3.18   7 3.18   7 3.18   5 3.18   6 3.18
 
  LATTYP: Found a simple cubic cell.
 ALAT       =     4.4995866716
  
  Lattice vectors:
  
 A1 = (   4.4995866716,   0.0000000000,   0.0000000000)
 A2 = (   0.0000000000,   4.4995866716,   0.0000000000)
 A3 = (   0.0000000000,   0.0000000000,   4.4995866716)
 Subroutine PRICEL returns following result:
 
  LATTYP: Found a face centered cubic cell.
 ALAT       =     4.4995866716
  
  Lattice vectors:
  
 A1 = (   2.2497933358,   2.2497933358,   0.0000000000)
 A2 = (   2.2497933358,   0.0000000000,  -2.2497933358)
 A3 = (   0.0000000000,   2.2497933358,  -2.2497933358)
 
   4 primitive cells build up your supercell.
 

Analysis of symmetry for initial positions (statically):

 Routine SETGRP: Setting up the symmetry group for a 
 simple cubic supercell.


 Subroutine GETGRP returns: Found 48 space group operations
 (whereof 48 operations were pure point group operations)
 out of a pool of 48 trial point group operations.


The static configuration has the point symmetry O_h .

Analysis of symmetry for dynamics (positions and initial velocities):

 Subroutine DYNSYM returns: Found 48 space group operations
 (whereof 48 operations were pure point group operations)
 out of a pool of 48 trial space group operations
 (whereof 48 operations were pure point group operations)
 and found also     4 'primitive' translations


The dynamic configuration has the point symmetry O_h .
 
 
 KPOINTS: KPOINTS created by Atomic Simulation Env

Automatic generation of k-mesh.
 
 Subroutine IBZKPT returns following result:
 ===========================================
 
 Found     20 irreducible k-points:
 
 Following reciprocal coordinates:
            Coordinates               Weight
  0.062500  0.062500  0.062500      8.000000
  0.187500  0.062500  0.062500     24.000000
  0.312500  0.062500  0.062500     24.000000
  0.437500  0.062500  0.062500     24.000000
  0.187500  0.187500  0.062500     24.000000
  0.312500  0.187500  0.062500     48.000000
  0.437500  0.187500  0.062500     48.000000
  0.312500  0.312500  0.062500     24.000000
  0.437500  0.312500  0.062500     48.000000
  0.437500  0.437500  0.062500     24.000000
  0.187500  0.187500  0.187500      8.000000
  0.312500  0.187500  0.187500     24.000000
  0.437500  0.187500  0.187500     24.000000
  0.312500  0.312500  0.187500     24.000000
  0.437500  0.312500  0.187500     48.000000
  0.437500  0.437500  0.187500     24.000000
  0.312500  0.312500  0.312500      8.000000
  0.437500  0.312500  0.312500     24.000000
  0.437500  0.437500  0.312500     24.000000
  0.437500  0.437500  0.437500      8.000000
 
 Following cartesian coordinates:
            Coordinates               Weight
  0.013890  0.013890  0.013890      8.000000
  0.041670  0.013890  0.013890     24.000000
  0.069451  0.013890  0.013890     24.000000
  0.097231  0.013890  0.013890     24.000000
  0.041670  0.041670  0.013890     24.000000
  0.069451  0.041670  0.013890     48.000000
  0.097231  0.041670  0.013890     48.000000
  0.069451  0.069451  0.013890     24.000000
  0.097231  0.069451  0.013890     48.000000
  0.097231  0.097231  0.013890     24.000000
  0.041670  0.041670  0.041670      8.000000
  0.069451  0.041670  0.041670     24.000000
  0.097231  0.041670  0.041670     24.000000
  0.069451  0.069451  0.041670     24.000000
  0.097231  0.069451  0.041670     48.000000
  0.097231  0.097231  0.041670     24.000000
  0.069451  0.069451  0.069451      8.000000
  0.097231  0.069451  0.069451     24.000000
  0.097231  0.097231  0.069451     24.000000
  0.097231  0.097231  0.097231      8.000000
 


--------------------------------------------------------------------------------------------------------




 Dimension of arrays:
   k-points           NKPTS =     20   k-points in BZ     NKDIM =     20   number of bands    NBANDS=     23
   number of dos      NEDOS =    301   number of ions     NIONS =      8
   non local maximal  LDIM  =      6   non local SUM 2l+1 LMDIM =     18
   total plane-waves  NPLWV =  27000
   max r-space proj   IRMAX =      1   max aug-charges    IRDMAX=  20372
   dimension x,y,z NGX =    30 NGY =   30 NGZ =   30
   dimension x,y,z NGXF=    60 NGYF=   60 NGZF=   60
   support grid    NGXF=    60 NGYF=   60 NGZF=   60
   ions per type =               4   4
 NGX,Y,Z   is equivalent  to a cutoff of  11.08, 11.08, 11.08 a.u.
 NGXF,Y,Z  is equivalent  to a cutoff of  22.17, 22.17, 22.17 a.u.


 I would recommend the setting:
   dimension x,y,z NGX =    30 NGY =   30 NGZ =   30
 SYSTEM =  unknown system                          
 POSCAR =   C Ta                                   

 Startparameter for this run:
   NWRITE =      2    write-flag & timer
   PREC   = normal    normal or accurate (medium, high low for compatibility)
   ISTART =      1    job   : 0-new  1-cont  2-samecut
   ICHARG =      0    charge: 1-file 2-atom 10-const
   ISPIN  =      1    spin polarized calculation?
   LNONCOLLINEAR =      F non collinear calculations
   LSORBIT =      F    spin-orbit coupling
   INIWAV =      1    electr: 0-lowe 1-rand  2-diag
   LASPH  =      F    aspherical Exc in radial PAW
   METAGGA=      F    non-selfconsistent MetaGGA calc.

 Electronic Relaxation 1
   ENCUT  =  750.0 eV  55.12 Ry    7.42 a.u.  10.05 10.05 10.05*2*pi/ulx,y,z
   ENINI  =  750.0     initial cutoff
   ENAUG  =  644.9 eV  augmentation charge cutoff
   NELM   =     60;   NELMIN=  2; NELMDL=  0     # of ELM steps 
   EDIFF  = 0.1E-03   stopping-criterion for ELM
   LREAL  =      F    real-space projection
   NLSPLINE    = F    spline interpolate recip. space projectors
   LCOMPAT=      F    compatible to vasp.4.4
   GGA_COMPAT  = T    GGA compatible to vasp.4.4-vasp.4.6
   LMAXPAW     = -100 max onsite density
   LMAXMIX     =    2 max onsite mixed and CHGCAR
   VOSKOWN=      0    Vosko Wilk Nusair interpolation
   ROPT   =    0.00000   0.00000
 Ionic relaxation
   EDIFFG = 0.1E-02   stopping-criterion for IOM
   NSW    =     50    number of steps for IOM
   NBLOCK =      1;   KBLOCK =     50    inner block; outer block 
   IBRION =      1    ionic relax: 0-MD 1-quasi-New 2-CG
   NFREE  =      0    steps in history (QN), initial steepest desc. (CG)
   ISIF   =      3    stress and relaxation
   IWAVPR =     11    prediction:  0-non 1-charg 2-wave 3-comb
   ISYM   =      2    0-nonsym 1-usesym 2-fastsym
   LCORR  =      T    Harris-Foulkes like correction to forces

   POTIM  = 0.5000    time-step for ionic-motion
   TEIN   =    0.0    initial temperature
   TEBEG  =    0.0;   TEEND  =   0.0 temperature during run
   SMASS  =  -3.00    Nose mass-parameter (am)
   estimated Nose-frequenzy (Omega)   =  0.10E-29 period in steps =****** mass=  -0.463E-27a.u.
   SCALEE = 1.0000    scale energy and forces
   NPACO  =    256;   APACO  = 16.0  distance and # of slots for P.C.
   PSTRESS=    0.0 pullay stress

  Mass of Ions in am
   POMASS =  12.01180.95
  Ionic Valenz
   ZVAL   =   4.00  5.00
  Atomic Wigner-Seitz radii
   RWIGS  =  -1.00 -1.00
  virtual crystal weights 
   VCA    =   1.00  1.00
   NELECT =      36.0000    total number of electrons
   NUPDOWN=      -1.0000    fix difference up-down

 DOS related values:
   EMIN   =  10.00;   EMAX   =-10.00  energy-range for DOS
   EFERMI =   0.00
   ISMEAR =     1;   SIGMA  =   0.05  broadening in eV -4-tet -1-fermi 0-gaus

 Electronic relaxation 2 (details)
   IALGO  =     38    algorithm
   LDIAG  =      T    sub-space diagonalisation (order eigenvalues)
   LSUBROT=      T    optimize rotation matrix (better conditioning)
   TURBO    =      0    0=normal 1=particle mesh
   IRESTART =      0    0=no restart 2=restart with 2 vectors
   NREBOOT  =      0    no. of reboots
   NMIN     =      0    reboot dimension
   EREF     =   0.00    reference energy to select bands
   IMIX   =      4    mixing-type and parameters
     AMIX     =   0.40;   BMIX     =  1.00
     AMIX_MAG =   1.60;   BMIX_MAG =  1.00
     AMIN     =   0.10
     WC   =   100.;   INIMIX=   1;  MIXPRE=   1

 Intra band minimization:
   WEIMIN = 0.0010     energy-eigenvalue tresh-hold
   EBREAK =  0.11E-05  absolut break condition
   DEPER  =   0.30     relativ break condition  

   TIME   =   0.40     timestep for ELM

  volume/ion in A,a.u.               =      11.39        76.85
  Fermi-wavevector in a.u.,A,eV,Ry     =   1.201350  2.270223 19.636511  1.443243
  Thomas-Fermi vector in A             =   2.337162
 
 Write flags
   LWAVE  =      T    write WAVECAR
   LCHARG =      T    write CHGCAR
   LVTOT  =      F    write LOCPOT, total local potential
   LVHAR  =      F    write LOCPOT, Hartree potential only
   LELF   =      F    write electronic localiz. function (ELF)
   LORBIT =      0    0 simple, 1 ext, 2 COOP (PROOUT)


 Dipole corrections
   LMONO  =      F    monopole corrections only (constant potential shift)
   LDIPOL =      F    correct potential (dipole corrections)
   IDIPOL =      0    1-x, 2-y, 3-z, 4-all directions 
   EPSILON=  1.0000000 bulk dielectric constant

 Exchange correlation treatment:
   GGA     =    --    GGA type
   LEXCH   =     8    internal setting for exchange type
   VOSKOWN=      0    Vosko Wilk Nusair interpolation
   LHFCALC =     F    Hartree Fock is set to
   LHFONE  =     F    Hartree Fock one center treatment
   AEXX    =    0.0000 exact exchange contribution

 Linear response parameters
   LEPSILON=     F    determine dielectric tensor
   LRPA    =     F    only Hartree local field effects (RPA)
   LNABLA  =     F    use nabla operator in PAW spheres
   LVEL    =     F    velocity operator in full k-point grid
   LINTERFAST=   F  fast interpolation
   KINTER  =     0    interpolate to denser k-point grid
   CSHIFT  =0.1000    complex shift for real part using Kramers Kronig
   OMEGAMAX=  -1.0    maximum frequency
   RTIME   =    0.100 relaxation time in fs

 Orbital magnetization related:
   ORBITALMAG=     F  switch on orbital magnetization
   LCHIMAG   =     F  perturbation theory with respect to B field
   DQ        =  0.001000  dq finite difference perturbation B field



--------------------------------------------------------------------------------------------------------


 quasi-Newton-method for relaxation of ions
 charge density and potential will be updated during run
 non-spin polarized calculation
 Variant of blocked Davidson
 Davidson routine will perform the subspace rotation
 perform sub-space diagonalisation
    after iterative eigenvector-optimisation
 modified Broyden-mixing scheme, WC =      100.0
 initial mixing is a Kerker type mixing with AMIX =  0.4000 and BMIX =      1.0000
 Hartree-type preconditioning will be used
 using additional bands            5
 reciprocal scheme for non local part
 use partial core corrections
 calculate Harris-corrections to forces 
   (improved forces if not selfconsistent)
 use gradient corrections 
 use of overlap-Matrix (Vanderbilt PP)
 Methfessel and Paxton  Order N= 1 SIGMA  =   0.05


--------------------------------------------------------------------------------------------------------


  energy-cutoff  :      750.00
  volume of cell :       91.10
      direct lattice vectors                 reciprocal lattice vectors
     4.499586672  0.000000000  0.000000000     0.222242635  0.000000000  0.000000000
     0.000000000  4.499586672  0.000000000     0.000000000  0.222242635  0.000000000
     0.000000000  0.000000000  4.499586672     0.000000000  0.000000000  0.222242635

  length of vectors
     4.499586672  4.499586672  4.499586672     0.222242635  0.222242635  0.222242635


 
 old parameters found on file WAVECAR:
  energy-cutoff  :      750.00
  volume of cell :       91.10
      direct lattice vectors                 reciprocal lattice vectors
     4.499586672  0.000000000  0.000000000     0.222242635  0.000000000  0.000000000
     0.000000000  4.499586672  0.000000000     0.000000000  0.222242635  0.000000000
     0.000000000  0.000000000  4.499586672     0.000000000  0.000000000  0.222242635

  length of vectors

 
 k-points in units of 2pi/SCALE and weight: KPOINTS created by Atomic Simulation Env
   0.01389016  0.01389016  0.01389016       0.016
   0.04167049  0.01389016  0.01389016       0.047
   0.06945082  0.01389016  0.01389016       0.047
   0.09723115  0.01389016  0.01389016       0.047
   0.04167049  0.04167049  0.01389016       0.047
   0.06945082  0.04167049  0.01389016       0.094
   0.09723115  0.04167049  0.01389016       0.094
   0.06945082  0.06945082  0.01389016       0.047
   0.09723115  0.06945082  0.01389016       0.094
   0.09723115  0.09723115  0.01389016       0.047
   0.04167049  0.04167049  0.04167049       0.016
   0.06945082  0.04167049  0.04167049       0.047
   0.09723115  0.04167049  0.04167049       0.047
   0.06945082  0.06945082  0.04167049       0.047
   0.09723115  0.06945082  0.04167049       0.094
   0.09723115  0.09723115  0.04167049       0.047
   0.06945082  0.06945082  0.06945082       0.016
   0.09723115  0.06945082  0.06945082       0.047
   0.09723115  0.09723115  0.06945082       0.047
   0.09723115  0.09723115  0.09723115       0.016
 
 k-points in reciprocal lattice and weights: KPOINTS created by Atomic Simulation Env
   0.06250000  0.06250000  0.06250000       0.016
   0.18750000  0.06250000  0.06250000       0.047
   0.31250000  0.06250000  0.06250000       0.047
   0.43750000  0.06250000  0.06250000       0.047
   0.18750000  0.18750000  0.06250000       0.047
   0.31250000  0.18750000  0.06250000       0.094
   0.43750000  0.18750000  0.06250000       0.094
   0.31250000  0.31250000  0.06250000       0.047
   0.43750000  0.31250000  0.06250000       0.094
   0.43750000  0.43750000  0.06250000       0.047
   0.18750000  0.18750000  0.18750000       0.016
   0.31250000  0.18750000  0.18750000       0.047
   0.43750000  0.18750000  0.18750000       0.047
   0.31250000  0.31250000  0.18750000       0.047
   0.43750000  0.31250000  0.18750000       0.094
   0.43750000  0.43750000  0.18750000       0.047
   0.31250000  0.31250000  0.31250000       0.016
   0.43750000  0.31250000  0.31250000       0.047
   0.43750000  0.43750000  0.31250000       0.047
   0.43750000  0.43750000  0.43750000       0.016
 
 position of ions in fractional coordinates (direct lattice) 
   0.00000000  0.00000000  0.50000000
   0.00000000  0.50000000  0.00000000
   0.50000000  0.00000000  0.00000000
   0.50000000  0.50000000  0.50000000
   0.00000000  0.00000000  0.00000000
   0.00000000  0.50000000  0.50000000
   0.50000000  0.00000000  0.50000000
   0.50000000  0.50000000  0.00000000
 
 position of ions in cartesian coordinates  (Angst):
   0.00000000  0.00000000  2.24979334
   0.00000000  2.24979334  0.00000000
   2.24979334  0.00000000  0.00000000
   2.24979334  2.24979334  2.24979334
   0.00000000  0.00000000  0.00000000
   0.00000000  2.24979334  2.24979334
   2.24979334  0.00000000  2.24979334
   2.24979334  2.24979334  0.00000000
 


--------------------------------------------------------------------------------------------------------


 k-point  1 :  0.06250.06250.0625  plane waves:    4256
 k-point  2 :  0.18750.06250.0625  plane waves:    4239
 k-point  3 :  0.31250.06250.0625  plane waves:    4232
 k-point  4 :  0.43750.06250.0625  plane waves:    4235
 k-point  5 :  0.18750.18750.0625  plane waves:    4238
 k-point  6 :  0.31250.18750.0625  plane waves:    4238
 k-point  7 :  0.43750.18750.0625  plane waves:    4251
 k-point  8 :  0.31250.31250.0625  plane waves:    4240
 k-point  9 :  0.43750.31250.0625  plane waves:    4258
 k-point 10 :  0.43750.43750.0625  plane waves:    4250
 k-point 11 :  0.18750.18750.1875  plane waves:    4244
 k-point 12 :  0.31250.18750.1875  plane waves:    4251
 k-point 13 :  0.43750.18750.1875  plane waves:    4246
 k-point 14 :  0.31250.31250.1875  plane waves:    4254
 k-point 15 :  0.43750.31250.1875  plane waves:    4258
 k-point 16 :  0.43750.43750.1875  plane waves:    4263
 k-point 17 :  0.31250.31250.3125  plane waves:    4272
 k-point 18 :  0.43750.31250.3125  plane waves:    4262
 k-point 19 :  0.43750.43750.3125  plane waves:    4253
 k-point 20 :  0.43750.43750.4375  plane waves:    4266

 maximum and minimum number of plane-waves per node :      4272     4232

 maximum number of plane-waves:      4272
 maximum index in each direction: 
   IXMAX=    9   IYMAX=    9   IZMAX=    9
   IXMIN=  -10   IYMIN=  -10   IZMIN=  -10

 WARNING: aliasing errors must be expected set NGX to  40 to avoid them
 WARNING: aliasing errors must be expected set NGY to  40 to avoid them
 WARNING: aliasing errors must be expected set NGZ to  40 to avoid them
 aliasing errors are usually negligible using standard VASP settings
 and one can safely disregard these warnings

 serial   3D FFT for wavefunctions
 parallel 3D FFT for charge:
    minimum data exchange during FFTs selected (reduces bandwidth)


 total amount of memory used by VASP on root node   108558. kBytes
========================================================================

   base      :      30000. kBytes
   nonl-proj :      25153. kBytes
   fftplans  :       7596. kBytes
   grid      :      13478. kBytes
   one-center:        124. kBytes
   wavefun   :      32207. kBytes
 
 Broyden mixing: mesh for mixing (old mesh)
   NGX = 21   NGY = 21   NGZ = 21
  (NGX  = 60   NGY  = 60   NGZ  = 60)
  gives a total of   9261 points

 charge density for first step will be calculated from the start-wavefunctions


--------------------------------------------------------------------------------------------------------


 Maximum index for augmentation-charges        19549 (set IRDMAX)


--------------------------------------------------------------------------------------------------------


 initial charge from wavefunction
 First call to EWALD:  gamma=   0.394
 Maximum number of real-space cells 3x 3x 3
 Maximum number of reciprocal cells 3x 3x 3

    FEWALD:  cpu time    0.00: real time    0.00


----------------------------------------- Iteration    1(   1)  ---------------------------------------


    POTLOK:  cpu time    0.31: real time    0.31
    SETDIJ:  cpu time    0.07: real time    0.07
     EDDAV:  cpu time    7.99: real time    8.90
       DOS:  cpu time    0.00: real time    0.00
    CHARGE:  cpu time    0.67: real time    0.67
    MIXING:  cpu time    0.01: real time    0.01
    --------------------------------------------
      LOOP:  cpu time    9.05: real time    9.97

 eigenvalue-minimisations  :   754
 total energy-change (2. order) :-0.8898704E+02  (-0.1603464E-05)
 number of electron      36.0000008 magnetization 
 augmentation part        1.8505412 magnetization 

 Broyden mixing:
  rms(total) = 0.59541E-03    rms(broyden)= 0.59540E-03
  rms(prec ) = 0.15152E-02
  weight for this iteration     100.00

 Free energy of the ion-electron system (eV)
  ---------------------------------------------------
  alpha Z        PSCENC =       207.51132765
  Ewald energy   TEWEN  =     -1482.15372264
  -1/2 Hartree   DENC   =       -90.52627991
  -exchange  EXHF       =         0.00000000
  -V(xc)+E(xc)   XCENC  =      -205.05088280
  PAW double counting   =      1041.98819295     -753.86985603
  entropy T*S    EENTRO =         0.00116005
  eigenvalues    EBANDS =        81.89642788
  atomic energy  EATOM  =      1111.21659498
  ---------------------------------------------------
  free energy    TOTEN  =       -88.98703787 eV

  energy without entropy =      -88.98819791  energy(sigma->0) =      -88.98742455


--------------------------------------------------------------------------------------------------------




----------------------------------------- Iteration    1(   2)  ---------------------------------------


    POTLOK:  cpu time    0.31: real time    0.31
    SETDIJ:  cpu time    0.06: real time    0.06
     EDDAV:  cpu time    7.81: real time    8.08
       DOS:  cpu time    0.00: real time    0.00
    --------------------------------------------
      LOOP:  cpu time    8.19: real time    8.46

 eigenvalue-minimisations  :   712
 total energy-change (2. order) : 0.1242019E-05  (-0.7312961E-06)
 number of electron      36.0000008 magnetization 
 augmentation part        1.8505412 magnetization 

 Free energy of the ion-electron system (eV)
  ---------------------------------------------------
  alpha Z        PSCENC =       207.51132765
  Ewald energy   TEWEN  =     -1482.15372264
  -1/2 Hartree   DENC   =       -90.51298521
  -exchange  EXHF       =         0.00000000
  -V(xc)+E(xc)   XCENC  =      -205.05261967
  PAW double counting   =      1041.99516024     -753.87691086
  entropy T*S    EENTRO =         0.00117734
  eigenvalues    EBANDS =        81.88494155
  atomic energy  EATOM  =      1111.21659498
  ---------------------------------------------------
  free energy    TOTEN  =       -88.98703662 eV

  energy without entropy =      -88.98821397  energy(sigma->0) =      -88.98742907


--------------------------------------------------------------------------------------------------------




 average (electrostatic) potential at core
  the test charge radii are     0.6991  1.2538
  (the norm of the test charge is              1.0000)
       1 -46.7495       2 -46.7495       3 -46.7495       4 -46.7495       5 -34.2972
       6 -34.2972       7 -34.2972       8 -34.2972
 
 
 
 E-fermi :   8.1594     XC(G=0): -12.8769     alpha+bet :-15.1588


 k-point   1 :       0.0625    0.0625    0.0625
  band No.  band energies     occupation 
      1      -6.1611      2.00000
      2      -4.1125      2.00000
      3      -4.1125      2.00000
      4      -4.1125      2.00000
      5       3.5867      2.00000
      6       3.5867      2.00000
      7       3.5867      2.00000
      8       3.8927      2.00000
      9       3.8927      2.00000
     10       3.8927      2.00000
     11       6.3122      2.00000
     12       6.3122      2.00000
     13       6.3122      2.00000
     14       6.4465      2.00000
     15       6.5769      2.00000
     16       6.5769      2.00000
     17       6.5769      2.00000
     18       6.7818      2.00000
     19       6.7818      2.00000
     20       7.5088      2.00000
     21       7.5088      2.00000
     22       8.2235     -0.06998
     23       9.7498      0.00000

 k-point   2 :       0.1875    0.0625    0.0625
  band No.  band energies     occupation 
      1      -5.9014      2.00000
      2      -4.0689      2.00000
      3      -3.9211      2.00000
      4      -3.9211      2.00000
      5       3.0205      2.00000
      6       3.4679      2.00000
      7       3.4679      2.00000
      8       3.6778      2.00000
      9       3.6778      2.00000
     10       4.0441      2.00000
     11       5.3032      2.00000
     12       5.3032      2.00000
     13       5.4281      2.00000
     14       6.0107      2.00000
     15       6.1587      2.00000
     16       6.2374      2.00000
     17       6.4688      2.00000
     18       7.0482      2.00000
     19       7.1380      2.00000
     20       7.1380      2.00000
     21       8.3126     -0.00013
     22       8.8499      0.00000
     23       9.9775      0.00000

 k-point   3 :       0.3125    0.0625    0.0625
  band No.  band energies     occupation 
      1      -5.4284      2.00000
      2      -4.0943      2.00000
      3      -3.6145      2.00000
      4      -3.6145      2.00000
      5       2.4221      2.00000
      6       3.1854      2.00000
      7       3.1854      2.00000
      8       3.5025      2.00000
      9       3.5025      2.00000
     10       3.9602      2.00000
     11       4.2252      2.00000
     12       4.2252      2.00000
     13       4.3242      2.00000
     14       5.5148      2.00000
     15       5.8905      2.00000
     16       5.9442      2.00000
     17       6.3131      2.00000
     18       6.6763      2.00000
     19       8.1149      2.01901
     20       8.1149      2.01901
     21       9.0608      0.00000
     22       9.8219      0.00000
     23      10.4807      0.00000

 k-point   4 :       0.4375    0.0625    0.0625
  band No.  band energies     occupation 
      1      -4.8505      2.00000
      2      -4.3490      2.00000
      3      -3.3626      2.00000
      4      -3.3626      2.00000
      5       2.2973      2.00000
      6       2.8294      2.00000
      7       2.8294      2.00000
      8       2.8430      2.00000
      9       3.4130      2.00000
     10       3.4130      2.00000
     11       3.7173      2.00000
     12       3.7173      2.00000
     13       4.6963      2.00000
     14       5.1014      2.00000
     15       5.7449      2.00000
     16       5.7790      2.00000
     17       6.2381      2.00000
     18       6.3559      2.00000
     19       9.2500      0.00000
     20       9.2500      0.00000
     21       9.6506      0.00000
     22      10.2303      0.00000
     23      10.3751      0.00000

 k-point   5 :       0.1875    0.1875    0.0625
  band No.  band energies     occupation 
      1      -5.6453      2.00000
      2      -3.8669      2.00000
      3      -3.8669      2.00000
      4      -3.7335      2.00000
      5       2.8599      2.00000
      6       2.8599      2.00000
      7       3.0672      2.00000
      8       3.5474      2.00000
      9       3.7909      2.00000
     10       3.7909      2.00000
     11       4.9136      2.00000
     12       5.1413      2.00000
     13       5.2536      2.00000
     14       5.2536      2.00000
     15       5.3773      2.00000
     16       5.5394      2.00000
     17       7.0700      2.00000
     18       7.0700      2.00000
     19       7.1068      2.00000
     20       7.4862      2.00000
     21       8.3767      0.00000
     22       9.0131      0.00000
     23      10.8213      0.00000

 k-point   6 :       0.3125    0.1875    0.0625
  band No.  band energies     occupation 
      1      -5.1783      2.00000
      2      -3.8746      2.00000
      3      -3.5355      2.00000
      4      -3.4357      2.00000
      5       2.2552      2.00000
      6       2.5254      2.00000
      7       2.5287      2.00000
      8       3.4538      2.00000
      9       3.5513      2.00000
     10       3.7384      2.00000
     11       3.9720      2.00000
     12       4.3063      2.00000
     13       4.3984      2.00000
     14       4.8546      2.00000
     15       5.1066      2.00000
     16       5.1231      2.00000
     17       6.9976      2.00000
     18       7.4411      2.00000
     19       7.9842      2.00001
     20       8.0703      2.03038
     21       9.1086      0.00000
     22       9.7355      0.00000
     23      11.2010      0.00000

 k-point   7 :       0.4375    0.1875    0.0625
  band No.  band energies     occupation 
      1      -4.6071      2.00000
      2      -4.1141      2.00000
      3      -3.2436      2.00000
      4      -3.2046      2.00000
      5       2.1288      2.00000
      6       2.1355      2.00000
      7       2.1569      2.00000
      8       2.6761      2.00000
      9       3.4004      2.00000
     10       3.4242      2.00000
     11       3.8535      2.00000
     12       3.9041      2.00000
     13       4.2118      2.00000
     14       4.5019      2.00000
     15       4.9515      2.00000
     16       4.9696      2.00000
     17       7.0237      2.00000
     18       7.1957      2.00000
     19       9.1763      0.00000
     20       9.2110      0.00000
     21       9.9152      0.00000
     22      10.3179      0.00000
     23      10.3730      0.00000

 k-point   8 :       0.3125    0.3125    0.0625
  band No.  band energies     occupation 
      1      -4.7219      2.00000
      2      -3.4987      2.00000
      3      -3.4987      2.00000
      4      -3.1619      2.00000
      5       1.8659      2.00000
      6       1.9215      2.00000
      7       1.9215      2.00000
      8       3.1635      2.00000
      9       3.4038      2.00000
     10       3.6461      2.00000
     11       3.6461      2.00000
     12       4.0776      2.00000
     13       4.1570      2.00000
     14       4.2021      2.00000
     15       4.2021      2.00000
     16       4.5002      2.00000
     17       8.0387      2.00339
     18       8.0387      2.00339
     19       8.0786      2.04473
     20       8.5862      0.00000
     21       9.5591      0.00000
     22      10.0457      0.00000
     23      10.8962      0.00000

 k-point   9 :       0.4375    0.3125    0.0625
  band No.  band energies     occupation 
      1      -4.1649      2.00000
      2      -3.6959      2.00000
      3      -3.1246      2.00000
      4      -2.9895      2.00000
      5       1.4650      2.00000
      6       1.5382      2.00000
      7       1.8003      2.00000
      8       2.3037      2.00000
      9       3.3957      2.00000
     10       3.4614      2.00000
     11       3.7300      2.00000
     12       3.7335      2.00000
     13       3.7790      2.00000
     14       3.9019      2.00000
     15       4.0787      2.00000
     16       4.1617      2.00000
     17       8.0850      2.05648
     18       8.1830      0.29018
     19       9.1759      0.00000
     20       9.6629      0.00000
     21      10.2103      0.00000
     22      10.2743      0.00000
     23      10.7461      0.00000

 k-point  10 :       0.4375    0.4375    0.0625
  band No.  band energies     occupation 
      1      -3.6360      2.00000
      2      -3.2265      2.00000
      3      -3.2265      2.00000
      4      -2.9410      2.00000
      5       1.1516      2.00000
      6       1.3554      2.00000
      7       1.3554      2.00000
      8       1.7272      2.00000
      9       3.4446      2.00000
     10       3.4944      2.00000
     11       3.4944      2.00000
     12       3.5031      2.00000
     13       3.5214      2.00000
     14       3.6177      2.00000
     15       3.6177      2.00000
     16       3.7916      2.00000
     17       8.9253      0.00000
     18       9.1488      0.00000
     19       9.1488      0.00000
     20       9.9148      0.00000
     21      10.5032      0.00000
     22      10.5286      0.00000
     23      11.0322      0.00000

 k-point  11 :       0.1875    0.1875    0.1875
  band No.  band energies     occupation 
      1      -5.3933      2.00000
      2      -3.6684      2.00000
      3      -3.6684      2.00000
      4      -3.6684      2.00000
      5       2.5475      2.00000
      6       2.5475      2.00000
      7       2.5475      2.00000
      8       3.5934      2.00000
      9       3.5934      2.00000
     10       3.5934      2.00000
     11       4.3204      2.00000
     12       5.0080      2.00000
     13       5.0080      2.00000
     14       5.0080      2.00000
     15       5.0823      2.00000
     16       5.0823      2.00000
     17       7.1734      2.00000
     18       7.1734      2.00000
     19       7.1734      2.00000
     20       8.1122      2.03650
     21       8.1122      2.03650
     22       8.9451      0.00000
     23      11.6371      0.00000

 k-point  12 :       0.3125    0.1875    0.1875
  band No.  band energies     occupation 
      1      -4.9328      2.00000
      2      -3.6580      2.00000
      3      -3.3447      2.00000
      4      -3.3447      2.00000
      5       1.9978      2.00000
      6       2.0590      2.00000
      7       2.0590      2.00000
      8       3.3914      2.00000
      9       3.4451      2.00000
     10       3.4451      2.00000
     11       3.6836      2.00000
     12       4.3081      2.00000
     13       4.3081      2.00000
     14       4.4230      2.00000
     15       4.8048      2.00000
     16       4.8229      2.00000
     17       7.2330      2.00000
     18       7.9225      2.00000
     19       8.0477      2.00701
     20       8.0477      2.00701
     21       9.0003      0.00000
     22       9.5472      0.00000
     23      11.2653      0.00000

 k-point  13 :       0.4375    0.1875    0.1875
  band No.  band energies     occupation 
      1      -4.3682      2.00000
      2      -3.8829      2.00000
      3      -3.0716      2.00000
      4      -3.0716      2.00000
      5       1.6567      2.00000
      6       1.6567      2.00000
      7       1.9033      2.00000
      8       2.4320      2.00000
      9       3.3841      2.00000
     10       3.3841      2.00000
     11       3.8227      2.00000
     12       3.8463      2.00000
     13       3.8463      2.00000
     14       4.0441      2.00000
     15       4.6678      2.00000
     16       4.6854      2.00000
     17       7.3597      2.00000
     18       7.6087      2.00000
     19       9.2175      0.00000
     20       9.2175      0.00000
     21       9.9278      0.00000
     22      10.3801      0.00000
     23      10.3801      0.00000

 k-point  14 :       0.3125    0.3125    0.1875
  band No.  band energies     occupation 
      1      -4.4834      2.00000
      2      -3.2879      2.00000
      3      -3.2879      2.00000
      4      -3.0423      2.00000
      5       1.4691      2.00000
      6       1.5575      2.00000
      7       1.5575      2.00000
      8       2.7463      2.00000
      9       3.3651      2.00000
     10       3.4462      2.00000
     11       3.4462      2.00000
     12       3.9532      2.00000
     13       3.9775      2.00000
     14       4.1485      2.00000
     15       4.1485      2.00000
     16       4.2715      2.00000
     17       8.1249      1.91223
     18       8.1249      1.91223
     19       8.5969      0.00000
     20       8.6625      0.00000
     21       9.1587      0.00000
     22       9.9098      0.00000
     23      11.0848      0.00000

 k-point  15 :       0.4375    0.3125    0.1875
  band No.  band energies     occupation 
      1      -3.9327      2.00000
      2      -3.4699      2.00000
      3      -2.9263      2.00000
      4      -2.8253      2.00000
      5       1.0714      2.00000
      6       1.1348      2.00000
      7       1.4766      2.00000
      8       1.9628      2.00000
      9       3.3463      2.00000
     10       3.3499      2.00000
     11       3.4902      2.00000
     12       3.6202      2.00000
     13       3.6392      2.00000
     14       3.6761      2.00000
     15       4.0302      2.00000
     16       4.0487      2.00000
     17       8.2690     -0.00816
     18       8.5027      0.00000
     19       9.2718      0.00000
     20       9.6909      0.00000
     21       9.9931      0.00000
     22      10.3974      0.00000
     23      10.7360      0.00000

 k-point  16 :       0.4375    0.4375    0.1875
  band No.  band energies     occupation 
      1      -3.4088      2.00000
      2      -3.0061      2.00000
      3      -3.0061      2.00000
      4      -2.7384      2.00000
      5       0.7749      2.00000
      6       0.9876      2.00000
      7       0.9876      2.00000
      8       1.3642      2.00000
      9       3.3228      2.00000
     10       3.3228      2.00000
     11       3.3764      2.00000
     12       3.3775      2.00000
     13       3.3819      2.00000
     14       3.5665      2.00000
     15       3.5665      2.00000
     16       3.6708      2.00000
     17       9.3632      0.00000
     18       9.3798      0.00000
     19       9.3798      0.00000
     20      10.0162      0.00000
     21      10.2491      0.00000
     22      10.3937      0.00000
     23      10.7312      0.00000

 k-point  17 :       0.3125    0.3125    0.3125
  band No.  band energies     occupation 
      1      -4.0455      2.00000
      2      -2.9319      2.00000
      3      -2.9319      2.00000
      4      -2.9319      2.00000
      5       1.0245      2.00000
      6       1.0245      2.00000
      7       1.0245      2.00000
      8       2.1148      2.00000
      9       3.2892      2.00000
     10       3.2892      2.00000
     11       3.2892      2.00000
     12       3.7711      2.00000
     13       3.7711      2.00000
     14       3.7840      2.00000
     15       3.7840      2.00000
     16       3.7840      2.00000
     17       8.7560      0.00000
     18       8.7560      0.00000
     19       8.7560      0.00000
     20       9.4203      0.00000
     21       9.4203      0.00000
     22       9.8065      0.00000
     23      11.2074      0.00000

 k-point  18 :       0.4375    0.3125    0.3125
  band No.  band energies     occupation 
      1      -3.5077      2.00000
      2      -3.0658      2.00000
      3      -2.6121      2.00000
      4      -2.6121      2.00000
      5       0.5923      2.00000
      6       0.5923      2.00000
      7       0.9595      2.00000
      8       1.4145      2.00000
      9       3.2359      2.00000
     10       3.2359      2.00000
     11       3.2608      2.00000
     12       3.3931      2.00000
     13       3.4424      2.00000
     14       3.4424      2.00000
     15       3.6535      2.00000
     16       3.6635      2.00000
     17       8.9261      0.00000
     18       9.1967      0.00000
     19       9.7334      0.00000
     20       9.7334      0.00000
     21      10.2959      0.00000
     22      10.6467      0.00000
     23      10.7746      0.00000

 k-point  19 :       0.4375    0.4375    0.3125
  band No.  band energies     occupation 
      1      -2.9950      2.00000
      2      -2.6197      2.00000
      3      -2.6197      2.00000
      4      -2.4174      2.00000
      5       0.2574      2.00000
      6       0.4405      2.00000
      7       0.4405      2.00000
      8       0.8083      2.00000
      9       3.1495      2.00000
     10       3.1495      2.00000
     11       3.1985      2.00000
     12       3.2069      2.00000
     13       3.2122      2.00000
     14       3.3263      2.00000
     15       3.3263      2.00000
     16       3.3658      2.00000
     17       9.8867      0.00000
     18       9.8867      0.00000
     19      10.0466      0.00000
     20      10.2434      0.00000
     21      10.3746      0.00000
     22      10.7021      0.00000
     23      10.8532      0.00000

 k-point  20 :       0.4375    0.4375    0.4375
  band No.  band energies     occupation 
      1      -2.5114      2.00000
      2      -2.2429      2.00000
      3      -2.2429      2.00000
      4      -2.2429      2.00000
      5      -0.0316      2.00000
      6      -0.0316      2.00000
      7      -0.0316      2.00000
      8       0.2356      2.00000
      9       3.0502      2.00000
     10       3.0502      2.00000
     11       3.0502      2.00000
     12       3.0974      2.00000
     13       3.0974      2.00000
     14       3.1008      2.00000
     15       3.1008      2.00000
     16       3.1008      2.00000
     17      10.5435      0.00000
     18      10.5435      0.00000
     19      10.5435      0.00000
     20      10.6749      0.00000
     21      10.6750      0.00000
     22      10.9277      0.00000
     23      10.9279      0.00000


--------------------------------------------------------------------------------------------------------


 soft charge-density along one line, spin component           1
         0         1         2         3         4         5         6         7         8         9
 total charge-density along one line
 
 pseudopotential strength for first ion, spin component:           1
  9.521  -0.002   0.000   0.000   0.000   0.000   0.000   0.000
 -0.002  -0.002   0.000   0.000   0.000   0.000   0.000   0.000
  0.000   0.000  -3.735   0.000   0.000  -0.006   0.000   0.000
  0.000   0.000   0.000  -3.735   0.000   0.000  -0.006   0.000
  0.000   0.000   0.000   0.000  -3.735   0.000   0.000  -0.006
  0.000   0.000  -0.006   0.000   0.000  -0.758   0.000   0.000
  0.000   0.000   0.000  -0.006   0.000   0.000  -0.758   0.000
  0.000   0.000   0.000   0.000  -0.006   0.000   0.000  -0.758
 total augmentation occupancy for first ion, spin component:           1
  1.515  -0.773   0.000   0.000   0.000   0.000   0.000   0.000
 -0.773   0.455   0.000   0.000   0.000   0.000   0.000   0.000
  0.000   0.000   1.018   0.000   0.000   0.128   0.000   0.000
  0.000   0.000   0.000   1.018   0.000   0.000   0.128   0.000
  0.000   0.000   0.000   0.000   1.018   0.000   0.000   0.128
  0.000   0.000   0.128   0.000   0.000   0.018   0.000   0.000
  0.000   0.000   0.000   0.128   0.000   0.000   0.018   0.000
  0.000   0.000   0.000   0.000   0.128   0.000   0.000   0.018


------------------------ aborting loop because EDIFF is reached ----------------------------------------


    CHARGE:  cpu time    0.69: real time    0.83
    FORLOC:  cpu time    0.04: real time    0.04
    FORNL :  cpu time    4.83: real time    5.05
    STRESS:  cpu time    7.02: real time    7.35
    FORCOR:  cpu time    0.40: real time    0.40
    FORHAR:  cpu time    0.14: real time    0.14
    MIXING:  cpu time    0.02: real time    0.02

  FORCE on cell =-STRESS in cart. coord.  units (eV):
  Direction    XX          YY          ZZ          XY          YZ          ZX
  --------------------------------------------------------------------------------------
  Alpha Z   207.51133   207.51133   207.51133
  Ewald    -494.05200  -494.05200  -494.05200     0.00000     0.00000     0.00000
  Hartree    30.16978    30.16978    30.16978     0.00000     0.00000     0.00000
  E(xc)    -150.04248  -150.04248  -150.04248     0.00000     0.00000     0.00000
  Local     -52.98149   -52.98149   -52.98149     0.00000     0.00000     0.00000
  n-local   -27.61969   -25.67708   -18.87511    -0.22570    -0.51958     0.11770
  augment    10.42935    10.42935    10.42935     0.00000     0.00000     0.00000
  Kinetic   454.21554   476.51249   479.14116     3.58824     4.59465     2.56489
  Fock        0.00000     0.00000     0.00000     0.00000     0.00000     0.00000
  -------------------------------------------------------------------------------------
  Total      -3.06641    -3.06641    -3.06641     0.00000     0.00000     0.00000
  in kB     -53.92907   -53.92907   -53.92907     0.00000     0.00000     0.00000
  external pressure =      -53.93 kB  Pullay stress =        0.00 kB


 VOLUME and BASIS-vectors are now :
 -----------------------------------------------------------------------------
  energy-cutoff  :      750.00
  volume of cell :       91.10
      direct lattice vectors                 reciprocal lattice vectors
     4.499586672  0.000000000  0.000000000     0.222242635  0.000000000  0.000000000
     0.000000000  4.499586672  0.000000000     0.000000000  0.222242635  0.000000000
     0.000000000  0.000000000  4.499586672     0.000000000  0.000000000  0.222242635

  length of vectors
     4.499586672  4.499586672  4.499586672     0.222242635  0.222242635  0.222242635


 FORCES acting on ions
    electron-ion (+dipol)            ewald-force                    non-local-force                 convergence-correction
 -----------------------------------------------------------------------------------------------
   -.244E-15 -.251E-15 0.270E-13   -.755E-15 -.142E-14 0.274E-14   0.000E+00 -.331E-23 0.000E+00   -.666E-14 -.261E-14 0.143E-14
   -.237E-15 0.270E-13 -.317E-15   -.811E-15 0.617E-15 0.376E-15   -.310E-23 0.486E-23 0.000E+00   -.677E-14 0.157E-14 0.557E-15
   0.273E-13 -.172E-15 0.494E-12   0.271E-14 -.203E-14 0.391E-15   -.331E-23 0.227E-23 0.827E-24   0.460E-14 -.278E-14 0.373E-15
   0.273E-13 -.221E-12 -.787E-13   0.265E-14 0.786E-17 0.236E-14   0.331E-23 -.331E-23 -.165E-23   0.425E-14 0.281E-15 0.113E-14
   -.327E-14 -.238E-15 -.208E-14   -.184E-14 -.183E-14 -.238E-14   -.124E-22 -.662E-23 0.331E-23   -.380E-14 -.122E-14 -.758E-15
   -.526E-14 -.253E-15 -.125E-14   -.173E-14 0.266E-14 -.723E-16   0.165E-23 0.165E-23 -.124E-23   -.364E-14 0.199E-14 -.281E-15
   -.297E-14 0.102E-14 -.681E-13   -.224E-15 -.124E-14 -.640E-16   0.827E-24 -.905E-23 -.116E-22   0.511E-14 -.318E-15 -.139E-15
   -.323E-14 -.237E-12 0.291E-12   -.112E-15 0.325E-14 -.317E-14   0.000E+00 0.000E+00 -.199E-22   0.507E-14 0.226E-14 -.634E-15
 -----------------------------------------------------------------------------------------------
   0.394E-13 -.431E-12 0.661E-12   -.125E-15 0.177E-16 0.180E-15   -.130E-22 -.135E-22 -.302E-22   -.186E-14 -.839E-15 0.168E-14
 
 
 POSITION                                       TOTAL-FORCE (eV/Angst)
 -----------------------------------------------------------------------------------
      0.00000      0.00000      2.24979         0.000000      0.000000      0.000000
      0.00000      2.24979      0.00000         0.000000      0.000000      0.000000
      2.24979      0.00000      0.00000         0.000000      0.000000      0.000000
      2.24979      2.24979      2.24979         0.000000      0.000000      0.000000
      0.00000      0.00000      0.00000         0.000000      0.000000      0.000000
      0.00000      2.24979      2.24979         0.000000      0.000000      0.000000
      2.24979      0.00000      2.24979         0.000000      0.000000      0.000000
      2.24979      2.24979      0.00000         0.000000      0.000000      0.000000
 -----------------------------------------------------------------------------------
    total drift:                                0.000000      0.000000      0.000000


--------------------------------------------------------------------------------------------------------



  FREE ENERGIE OF THE ION-ELECTRON SYSTEM (eV)
  ---------------------------------------------------
  free  energy   TOTEN  =       -88.987037 eV

  energy  without entropy=      -88.988214  energy(sigma->0) =      -88.987429
 


--------------------------------------------------------------------------------------------------------


    POTLOK:  cpu time    0.48: real time    0.52


--------------------------------------------------------------------------------------------------------


 Quasi-Newton relaxation of ions (Broydens 2nd method)
  g(Force)  = 0.620E-61   g(Stress)= 0.170E+00

 Reset! Starting new Quasi-Newton update for ions 


--------------------------------------------------------------------------------------------------------


    WAVPRE:  cpu time    0.12: real time    0.12
    FEWALD:  cpu time    0.00: real time    0.00
    GENKIN:  cpu time    0.03: real time    0.03
    ORTHCH:  cpu time    0.79: real time    0.79
     LOOP+:  cpu time   32.41: real time   34.54


----------------------------------------- Iteration    2(   1)  ---------------------------------------


    POTLOK:  cpu time    0.40: real time    0.40
    SETDIJ:  cpu time    0.09: real time    0.09
     EDDAV:  cpu time   10.63: real time   11.28
       DOS:  cpu time    0.00: real time    0.00
    CHARGE:  cpu time    0.71: real time    0.71
    MIXING:  cpu time    0.01: real time    0.01
    --------------------------------------------
      LOOP:  cpu time   11.86: real time   12.51

 eigenvalue-minimisations  :   920
 total energy-change (2. order) : 0.4165621E-01  (-0.4623957E+00)
 number of electron      36.0000004 magnetization 
 augmentation part        1.8854390 magnetization 

 Broyden mixing:
  rms(total) = 0.15274E+00    rms(broyden)= 0.15274E+00
  rms(prec ) = 0.32481E+00
  weight for this iteration     100.00

 Free energy of the ion-electron system (eV)
  ---------------------------------------------------
  alpha Z        PSCENC =       219.46212111
  Ewald energy   TEWEN  =     -1510.07726907
  -1/2 Hartree   DENC   =       -92.21679634
  -exchange  EXHF       =         0.00000000
  -V(xc)+E(xc)   XCENC  =      -203.88069003
  PAW double counting   =      1042.00114354     -753.88278093
  entropy T*S    EENTRO =        -0.00135171
  eigenvalues    EBANDS =        98.43364680
  atomic energy  EATOM  =      1111.21659498
  ---------------------------------------------------
  free energy    TOTEN  =       -88.94538166 eV

  energy without entropy =      -88.94402995  energy(sigma->0) =      -88.94493109


--------------------------------------------------------------------------------------------------------




----------------------------------------- Iteration    2(   2)  ---------------------------------------


    POTLOK:  cpu time    0.37: real time    0.37
    SETDIJ:  cpu time    0.07: real time    0.27
     EDDAV:  cpu time   12.25: real time   12.54
       DOS:  cpu time    0.00: real time    0.00
    CHARGE:  cpu time    0.70: real time    0.70
    MIXING:  cpu time    0.01: real time    0.01
    --------------------------------------------
      LOOP:  cpu time   13.42: real time   13.90

 eigenvalue-minimisations  :  1136
 total energy-change (2. order) : 0.6750099E-01  (-0.1576694E-01)
 number of electron      36.0000004 magnetization 
 augmentation part        1.8772589 magnetization 

 Broyden mixing:
  rms(total) = 0.60960E-01    rms(broyden)= 0.60960E-01
  rms(prec ) = 0.12633E+00
  weight for this iteration     100.00

 eigenvalues of (default mixing * dielectric matrix)
  average eigenvalue GAMMA=   1.3491
  1.3491

 Free energy of the ion-electron system (eV)
  ---------------------------------------------------
  alpha Z        PSCENC =       219.46212111
  Ewald energy   TEWEN  =     -1510.07726907
  -1/2 Hartree   DENC   =       -89.56511390
  -exchange  EXHF       =         0.00000000
  -V(xc)+E(xc)   XCENC  =      -204.02392170
  PAW double counting   =      1069.60896223     -781.74790452
  entropy T*S    EENTRO =         0.00083330
  eigenvalues    EBANDS =        96.24781692
  atomic energy  EATOM  =      1111.21659498
  ---------------------------------------------------
  free energy    TOTEN  =       -88.87788067 eV

  energy without entropy =      -88.87871396  energy(sigma->0) =      -88.87815843


--------------------------------------------------------------------------------------------------------




----------------------------------------- Iteration    2(   3)  ---------------------------------------


    POTLOK:  cpu time    0.37: real time    0.53
    SETDIJ:  cpu time    0.07: real time    0.07
     EDDAV:  cpu time   11.53: real time   12.36
       DOS:  cpu time    0.00: real time    0.00
    CHARGE:  cpu time    0.70: real time    0.70
    MIXING:  cpu time    0.01: real time    0.02
    --------------------------------------------
      LOOP:  cpu time   12.69: real time   13.73

 eigenvalue-minimisations  :  1060
 total energy-change (2. order) : 0.1401217E-01  (-0.1036060E-02)
 number of electron      36.0000004 magnetization 
 augmentation part        1.8823283 magnetization 

 Broyden mixing:
  rms(total) = 0.27607E-01    rms(broyden)= 0.27607E-01
  rms(prec ) = 0.58641E-01
  weight for this iteration     100.00

 eigenvalues of (default mixing * dielectric matrix)
  average eigenvalue GAMMA=   1.6510
  1.0657  2.2363

 Free energy of the ion-electron system (eV)
  ---------------------------------------------------
  alpha Z        PSCENC =       219.46212111
  Ewald energy   TEWEN  =     -1510.07726907
  -1/2 Hartree   DENC   =       -89.12919926
  -exchange  EXHF       =         0.00000000
  -V(xc)+E(xc)   XCENC  =      -203.94209543
  PAW double counting   =      1089.79057508     -802.11593269
  entropy T*S    EENTRO =         0.00063221
  eigenvalues    EBANDS =        95.93070458
  atomic energy  EATOM  =      1111.21659498
  ---------------------------------------------------
  free energy    TOTEN  =       -88.86386850 eV

  energy without entropy =      -88.86450071  energy(sigma->0) =      -88.86407924


--------------------------------------------------------------------------------------------------------




----------------------------------------- Iteration    2(   4)  ---------------------------------------


    POTLOK:  cpu time    0.37: real time    0.37
    SETDIJ:  cpu time    0.07: real time    0.07
     EDDAV:  cpu time   11.98: real time   12.17
       DOS:  cpu time    0.00: real time    0.00
    CHARGE:  cpu time    0.71: real time    0.71
    MIXING:  cpu time    0.02: real time    0.02
    --------------------------------------------
      LOOP:  cpu time   13.15: real time   13.36

 eigenvalue-minimisations  :  1087
 total energy-change (2. order) : 0.4240074E-02  (-0.6820210E-03)
 number of electron      36.0000004 magnetization 
 augmentation part        1.8902342 magnetization 

 Broyden mixing:
  rms(total) = 0.44224E-02    rms(broyden)= 0.44224E-02
  rms(prec ) = 0.10752E-01
  weight for this iteration     100.00

 eigenvalues of (default mixing * dielectric matrix)
  average eigenvalue GAMMA=   1.3108
  2.2422  0.9910  0.6991

 Free energy of the ion-electron system (eV)
  ---------------------------------------------------
  alpha Z        PSCENC =       219.46212111
  Ewald energy   TEWEN  =     -1510.07726907
  -1/2 Hartree   DENC   =       -88.92732500
  -exchange  EXHF       =         0.00000000
  -V(xc)+E(xc)   XCENC  =      -203.85066124
  PAW double counting   =      1109.16255955     -821.66565923
  entropy T*S    EENTRO =         0.00015443
  eigenvalues    EBANDS =        95.81985605
  atomic energy  EATOM  =      1111.21659498
  ---------------------------------------------------
  free energy    TOTEN  =       -88.85962843 eV

  energy without entropy =      -88.85978286  energy(sigma->0) =      -88.85967990


--------------------------------------------------------------------------------------------------------




----------------------------------------- Iteration    2(   5)  ---------------------------------------


    POTLOK:  cpu time    0.38: real time    0.38
    SETDIJ:  cpu time    0.08: real time    0.08
     EDDAV:  cpu time    9.54: real time   10.07
       DOS:  cpu time    0.00: real time    0.00
    --------------------------------------------
      LOOP:  cpu time   10.00: real time   10.58

 eigenvalue-minimisations  :   762
 total energy-change (2. order) : 0.4435088E-04  (-0.1285171E-04)
 number of electron      36.0000004 magnetization 
 augmentation part        1.8902342 magnetization 

 Free energy of the ion-electron system (eV)
  ---------------------------------------------------
  alpha Z        PSCENC =       219.46212111
  Ewald energy   TEWEN  =     -1510.07726907
  -1/2 Hartree   DENC   =       -88.88231983
  -exchange  EXHF       =         0.00000000
  -V(xc)+E(xc)   XCENC  =      -203.85806172
  PAW double counting   =      1109.80609619     -822.31373029
  entropy T*S    EENTRO =         0.00023519
  eigenvalues    EBANDS =        95.78674936
  atomic energy  EATOM  =      1111.21659498
  ---------------------------------------------------
  free energy    TOTEN  =       -88.85958408 eV

  energy without entropy =      -88.85981927  energy(sigma->0) =      -88.85966247


--------------------------------------------------------------------------------------------------------




 average (electrostatic) potential at core
  the test charge radii are     0.6991  1.2538
  (the norm of the test charge is              1.0000)
       1 -46.1265       2 -46.1265       3 -46.1265       4 -46.1265       5 -33.4704
       6 -33.4704       7 -33.4704       8 -33.4704
 
 
 
 E-fermi :   8.7475     XC(G=0): -13.1610     alpha+bet :-16.0318


 k-point   1 :       0.0625    0.0625    0.0625
  band No.  band energies     occupation 
      1      -5.9564      2.00000
      2      -3.8845      2.00000
      3      -3.8845      2.00000
      4      -3.8845      2.00000
      5       4.1136      2.00000
      6       4.1136      2.00000
      7       4.1136      2.00000
      8       4.1863      2.00000
      9       4.1863      2.00000
     10       4.1863      2.00000
     11       6.8690      2.00000
     12       6.8690      2.00000
     13       6.8690      2.00000
     14       6.9221      2.00000
     15       7.1456      2.00000
     16       7.1456      2.00000
     17       7.1456      2.00000
     18       7.2763      2.00000
     19       7.2763      2.00000
     20       8.0488      2.00000
     21       8.0488      2.00000
     22       8.8062     -0.07002
     23      10.4585      0.00000

 k-point   2 :       0.1875    0.0625    0.0625
  band No.  band energies     occupation 
      1      -5.6765      2.00000
      2      -3.8171      2.00000
      3      -3.6734      2.00000
      4      -3.6734      2.00000
      5       3.4964      2.00000
      6       3.9027      2.00000
      7       3.9027      2.00000
      8       4.0781      2.00000
      9       4.0781      2.00000
     10       4.3393      2.00000
     11       5.7983      2.00000
     12       5.7983      2.00000
     13       5.8718      2.00000
     14       6.4616      2.00000
     15       6.6987      2.00000
     16       6.7093      2.00000
     17       7.0215      2.00000
     18       7.5493      2.00000
     19       7.7063      2.00000
     20       7.7063      2.00000
     21       8.9110     -0.00004
     22       9.4725      0.00000
     23      10.6956      0.00000

 k-point   3 :       0.3125    0.0625    0.0625
  band No.  band energies     occupation 
      1      -5.1681      2.00000
      2      -3.8045      2.00000
      3      -3.3324      2.00000
      4      -3.3324      2.00000
      5       2.8129      2.00000
      6       3.5811      2.00000
      7       3.5811      2.00000
      8       3.9384      2.00000
      9       3.9384      2.00000
     10       4.3327      2.00000
     11       4.6409      2.00000
     12       4.6512      2.00000
     13       4.6512      2.00000
     14       5.9384      2.00000
     15       6.3550      2.00000
     16       6.4586      2.00000
     17       6.8385      2.00000
     18       7.1554      2.00000
     19       8.7149      1.88504
     20       8.7149      1.88504
     21       9.7292      0.00000
     22      10.5154      0.00000
     23      11.2243      0.00000

 k-point   4 :       0.4375    0.0625    0.0625
  band No.  band energies     occupation 
      1      -4.5527      2.00000
      2      -4.0361      2.00000
      3      -3.0488      2.00000
      4      -3.0488      2.00000
      5       2.6261      2.00000
      6       3.1689      2.00000
      7       3.1973      2.00000
      8       3.1973      2.00000
      9       3.8385      2.00000
     10       3.8385      2.00000
     11       4.1249      2.00000
     12       4.1249      2.00000
     13       5.0461      2.00000
     14       5.4909      2.00000
     15       6.2161      2.00000
     16       6.2683      2.00000
     17       6.7344      2.00000
     18       6.8323      2.00000
     19       9.9132      0.00000
     20       9.9132      0.00000
     21      10.3783      0.00000
     22      10.9212      0.00000
     23      11.1258      0.00000

 k-point   5 :       0.1875    0.1875    0.0625
  band No.  band energies     occupation 
      1      -5.4011      2.00000
      2      -3.5954      2.00000
      3      -3.5954      2.00000
      4      -3.4659      2.00000
      5       3.3055      2.00000
      6       3.3055      2.00000
      7       3.4285      2.00000
      8       4.0274      2.00000
      9       4.1278      2.00000
     10       4.1278      2.00000
     11       5.3443      2.00000
     12       5.6092      2.00000
     13       5.7402      2.00000
     14       5.7402      2.00000
     15       5.8006      2.00000
     16       5.9680      2.00000
     17       7.6247      2.00000
     18       7.6247      2.00000
     19       7.6564      2.00000
     20       8.0191      2.00000
     21       8.9818      0.00000
     22       9.6469      0.00000
     23      11.6187      0.00000

 k-point   6 :       0.3125    0.1875    0.0625
  band No.  band energies     occupation 
      1      -4.8998      2.00000
      2      -3.5651      2.00000
      3      -3.2295      2.00000
      4      -3.1327      2.00000
      5       2.6272      2.00000
      6       2.8784      2.00000
      7       2.9246      2.00000
      8       3.9195      2.00000
      9       3.9275      2.00000
     10       4.1111      2.00000
     11       4.3179      2.00000
     12       4.7362      2.00000
     13       4.8138      2.00000
     14       5.2544      2.00000
     15       5.5389      2.00000
     16       5.5702      2.00000
     17       7.5312      2.00000
     18       7.9699      2.00000
     19       8.5716      2.00001
     20       8.6613      2.03498
     21       9.7769      0.00000
     22      10.4221      0.00000
     23      12.0385      0.00000

 k-point   7 :       0.4375    0.1875    0.0625
  band No.  band energies     occupation 
      1      -4.2912      2.00000
      2      -3.7821      2.00000
      3      -2.9055      2.00000
      4      -2.8675      2.00000
      5       2.4547      2.00000
      6       2.4659      2.00000
      7       2.5042      2.00000
      8       2.9996      2.00000
      9       3.8280      2.00000
     10       3.8348      2.00000
     11       4.2554      2.00000
     12       4.2969      2.00000
     13       4.5756      2.00000
     14       4.8842      2.00000
     15       5.3728      2.00000
     16       5.4085      2.00000
     17       7.5412      2.00000
     18       7.7119      2.00000
     19       9.8402      0.00000
     20       9.8700      0.00000
     21      10.6611      0.00000
     22      11.0679      0.00000
     23      11.1351      0.00000

 k-point   8 :       0.3125    0.3125    0.0625
  band No.  band energies     occupation 
      1      -4.4103      2.00000
      2      -3.1539      2.00000
      3      -3.1539      2.00000
      4      -2.8202      2.00000
      5       2.1942      2.00000
      6       2.2613      2.00000
      7       2.2613      2.00000
      8       3.5309      2.00000
      9       3.8518      2.00000
     10       4.0169      2.00000
     11       4.0169      2.00000
     12       4.4625      2.00000
     13       4.5107      2.00000
     14       4.6063      2.00000
     15       4.6063      2.00000
     16       4.8852      2.00000
     17       8.6188      2.00164
     18       8.6188      2.00164
     19       8.6555      2.02578
     20       9.2087      0.00000
     21      10.2474      0.00000
     22      10.7657      0.00000
     23      11.7213      0.00000

 k-point   9 :       0.4375    0.3125    0.0625
  band No.  band energies     occupation 
      1      -3.8158      2.00000
      2      -3.3287      2.00000
      3      -2.7447      2.00000
      4      -2.6094      2.00000
      5       1.7660      2.00000
      6       1.8433      2.00000
      7       2.1039      2.00000
      8       2.6248      2.00000
      9       3.8161      2.00000
     10       3.8533      2.00000
     11       4.0955      2.00000
     12       4.1001      2.00000
     13       4.1481      2.00000
     14       4.2566      2.00000
     15       4.4566      2.00000
     16       4.5372      2.00000
     17       8.6615      2.03527
     18       8.7655      0.43451
     19       9.8318      0.00000
     20      10.3668      0.00000
     21      10.9597      0.00000
     22      11.0276      0.00000
     23      11.5518      0.00000

 k-point  10 :       0.4375    0.4375    0.0625
  band No.  band energies     occupation 
      1      -3.2478      2.00000
      2      -2.8199      2.00000
      3      -2.8199      2.00000
      4      -2.5239      2.00000
      5       1.4215      2.00000
      6       1.6342      2.00000
      7       1.6342      2.00000
      8       2.0252      2.00000
      9       3.8372      2.00000
     10       3.8381      2.00000
     11       3.8381      2.00000
     12       3.8444      2.00000
     13       3.8465      2.00000
     14       3.9935      2.00000
     15       3.9935      2.00000
     16       4.1687      2.00000
     17       9.5692      0.00000
     18       9.8062      0.00000
     19       9.8062      0.00000
     20      10.6447      0.00000
     21      11.2753      0.00000
     22      11.2855      0.00000
     23      11.8593      0.00000

 k-point  11 :       0.1875    0.1875    0.1875
  band No.  band energies     occupation 
      1      -5.1309      2.00000
      2      -3.3773      2.00000
      3      -3.3773      2.00000
      4      -3.3773      2.00000
      5       2.9405      2.00000
      6       2.9405      2.00000
      7       2.9405      2.00000
      8       3.9907      2.00000
      9       3.9907      2.00000
     10       3.9907      2.00000
     11       4.7321      2.00000
     12       5.4611      2.00000
     13       5.4611      2.00000
     14       5.4611      2.00000
     15       5.4892      2.00000
     16       5.4892      2.00000
     17       7.7221      2.00000
     18       7.7221      2.00000
     19       7.7221      2.00000
     20       8.6953      2.05833
     21       8.6953      2.05833
     22       9.5932      0.00000
     23      12.5494      0.00000

 k-point  12 :       0.3125    0.1875    0.1875
  band No.  band energies     occupation 
      1      -4.6375      2.00000
      2      -3.3295      2.00000
      3      -3.0184      2.00000
      4      -3.0184      2.00000
      5       2.3461      2.00000
      6       2.4111      2.00000
      7       2.4111      2.00000
      8       3.7652      2.00000
      9       3.8637      2.00000
     10       3.8637      2.00000
     11       4.0570      2.00000
     12       4.7135      2.00000
     13       4.7135      2.00000
     14       4.7981      2.00000
     15       5.2013      2.00000
     16       5.2541      2.00000
     17       7.7729      2.00000
     18       8.4894      2.00000
     19       8.6362      2.00720
     20       8.6362      2.00720
     21       9.6584      0.00000
     22      10.2412      0.00000
     23      12.1271      0.00000

 k-point  13 :       0.4375    0.1875    0.1875
  band No.  band energies     occupation 
      1      -4.0360      2.00000
      2      -3.5331      2.00000
      3      -2.7108      2.00000
      4      -2.7108      2.00000
      5       1.9775      2.00000
      6       1.9775      2.00000
      7       2.2137      2.00000
      8       2.7560      2.00000
      9       3.7983      2.00000
     10       3.7983      2.00000
     11       4.1914      2.00000
     12       4.2273      2.00000
     13       4.2273      2.00000
     14       4.4130      2.00000
     15       5.0659      2.00000
     16       5.0962      2.00000
     17       7.8950      2.00000
     18       8.1540      2.00000
     19       9.8831      0.00000
     20       9.8831      0.00000
     21      10.6712      0.00000
     22      11.1445      0.00000
     23      11.1445      0.00000

 k-point  14 :       0.3125    0.3125    0.1875
  band No.  band energies     occupation 
      1      -4.1570      2.00000
      2      -2.9240      2.00000
      3      -2.9240      2.00000
      4      -2.6778      2.00000
      5       1.7869      2.00000
      6       1.8762      2.00000
      7       1.8762      2.00000
      8       3.1122      2.00000
      9       3.7839      2.00000
     10       3.8310      2.00000
     11       3.8310      2.00000
     12       4.3203      2.00000
     13       4.3252      2.00000
     14       4.5334      2.00000
     15       4.5334      2.00000
     16       4.6410      2.00000
     17       8.7125      1.91958
     18       8.7125      1.91958
     19       9.2175      0.00000
     20       9.2889      0.00000
     21       9.8234      0.00000
     22      10.6378      0.00000
     23      11.9324      0.00000

 k-point  15 :       0.4375    0.3125    0.1875
  band No.  band energies     occupation 
      1      -3.5695      2.00000
      2      -3.0864      2.00000
      3      -2.5249      2.00000
      4      -2.4219      2.00000
      5       1.3585      2.00000
      6       1.4241      2.00000
      7       1.7750      2.00000
      8       2.2875      2.00000
      9       3.7343      2.00000
     10       3.7485      2.00000
     11       3.8497      2.00000
     12       3.9697      2.00000
     13       3.9793      2.00000
     14       4.0351      2.00000
     15       4.3983      2.00000
     16       4.4116      2.00000
     17       8.8622     -0.00555
     18       9.1129      0.00000
     19       9.9404      0.00000
     20      10.3958      0.00000
     21      10.7327      0.00000
     22      11.1693      0.00000
     23      11.5430      0.00000

 k-point  16 :       0.4375    0.4375    0.1875
  band No.  band energies     occupation 
      1      -3.0068      2.00000
      2      -2.5814      2.00000
      3      -2.5814      2.00000
      4      -2.2987      2.00000
      5       1.0352      2.00000
      6       1.2622      2.00000
      7       1.2622      2.00000
      8       1.6657      2.00000
      9       3.6579      2.00000
     10       3.6579      2.00000
     11       3.6944      2.00000
     12       3.7003      2.00000
     13       3.7611      2.00000
     14       3.9265      2.00000
     15       3.9265      2.00000
     16       4.0323      2.00000
     17      10.0475      0.00000
     18      10.0593      0.00000
     19      10.0593      0.00000
     20      10.7440      0.00000
     21      11.0142      0.00000
     22      11.1623      0.00000
     23      11.5379      0.00000

 k-point  17 :       0.3125    0.3125    0.3125
  band No.  band energies     occupation 
      1      -3.6908      2.00000
      2      -2.5305      2.00000
      3      -2.5305      2.00000
      4      -2.5305      2.00000
      5       1.3179      2.00000
      6       1.3179      2.00000
      7       1.3179      2.00000
      8       2.4754      2.00000
      9       3.6685      2.00000
     10       3.6685      2.00000
     11       3.6685      2.00000
     12       4.1034      2.00000
     13       4.1034      2.00000
     14       4.1376      2.00000
     15       4.1376      2.00000
     16       4.1376      2.00000
     17       9.3866      0.00000
     18       9.3866      0.00000
     19       9.3866      0.00000
     20      10.1135      0.00000
     21      10.1135      0.00000
     22      10.5143      0.00000
     23      12.0774      0.00000

 k-point  18 :       0.4375    0.3125    0.3125
  band No.  band energies     occupation 
      1      -3.1164      2.00000
      2      -2.6490      2.00000
      3      -2.1677      2.00000
      4      -2.1677      2.00000
      5       0.8556      2.00000
      6       0.8556      2.00000
      7       1.2494      2.00000
      8       1.7415      2.00000
      9       3.6025      2.00000
     10       3.6025      2.00000
     11       3.6034      2.00000
     12       3.7143      2.00000
     13       3.7732      2.00000
     14       3.7732      2.00000
     15       3.9836      2.00000
     16       4.0014      2.00000
     17       9.5687      0.00000
     18       9.8638      0.00000
     19      10.4417      0.00000
     20      10.4417      0.00000
     21      11.0732      0.00000
     22      11.4324      0.00000
     23      11.5914      0.00000

 k-point  19 :       0.4375    0.4375    0.3125
  band No.  band energies     occupation 
      1      -2.5637      2.00000
      2      -2.1559      2.00000
      3      -2.1559      2.00000
      4      -1.9316      2.00000
      5       0.4964      2.00000
      6       0.7029      2.00000
      7       0.7029      2.00000
      8       1.1112      2.00000
      9       3.4688      2.00000
     10       3.4688      2.00000
[...]

 k-point   8 :       0.3125    0.3125    0.0625
  band No.  band energies     occupation 
      1      -4.6337      2.00000
      2      -3.3999      2.00000
      3      -3.3999      2.00000
      4      -3.0634      2.00000
      5       1.9600      2.00000
      6       2.0190      2.00000
      7       2.0190      2.00000
      8       3.2699      2.00000
      9       3.5315      2.00000
     10       3.7530      2.00000
     11       3.7530      2.00000
     12       4.1888      2.00000
     13       4.2598      2.00000
     14       4.3187      2.00000
     15       4.3187      2.00000
     16       4.6116      2.00000
     17       8.2067      2.00273
     18       8.2067      2.00273
     19       8.2465      2.03995
     20       8.7668      0.00000
     21       9.7591      0.00000
     22      10.2542      0.00000
     23      11.1352      0.00000

 k-point   9 :       0.4375    0.3125    0.0625
  band No.  band energies     occupation 
      1      -4.0659      2.00000
      2      -3.5914      2.00000
      3      -3.0158      2.00000
      4      -2.8804      2.00000
      5       1.5514      2.00000
      6       1.6260      2.00000
      7       1.8881      2.00000
      8       2.3968      2.00000
      9       3.5159      2.00000
     10       3.5739      2.00000
     11       3.8368      2.00000
     12       3.8381      2.00000
     13       3.8855      2.00000
     14       4.0047      2.00000
     15       4.1880      2.00000
     16       4.2703      2.00000
     17       8.2523      2.05074
     18       8.3523      0.31732
     19       9.3662      0.00000
     20       9.8670      0.00000
     21      10.4277      0.00000
     22      10.4931      0.00000
     23      10.9795      0.00000

 k-point  10 :       0.4375    0.4375    0.0625
  band No.  band energies     occupation 
      1      -3.5258      2.00000
      2      -3.1107      2.00000
      3      -3.1107      2.00000
      4      -2.8220      2.00000
      5       1.2295      2.00000
      6       1.4361      2.00000
      7       1.4361      2.00000
      8       1.8135      2.00000
      9       3.5598      2.00000
     10       3.5944      2.00000
     11       3.5944      2.00000
     12       3.6001      2.00000
     13       3.6153      2.00000
     14       3.7255      2.00000
     15       3.7255      2.00000
     16       3.9003      2.00000
     17       9.1124      0.00000
     18       9.3397      0.00000
     19       9.3397      0.00000
     20      10.1266      0.00000
     21      10.7299      0.00000
     22      10.7456      0.00000
     23      11.2722      0.00000

 k-point  11 :       0.1875    0.1875    0.1875
  band No.  band energies     occupation 
      1      -5.3192      2.00000
      2      -3.5843      2.00000
      3      -3.5843      2.00000
      4      -3.5843      2.00000
      5       2.6604      2.00000
      6       2.6604      2.00000
      7       2.6604      2.00000
      8       3.7070      2.00000
      9       3.7070      2.00000
     10       3.7070      2.00000
     11       4.4396      2.00000
     12       5.1386      2.00000
     13       5.1386      2.00000
     14       5.1386      2.00000
     15       5.2004      2.00000
     16       5.2004      2.00000
     17       7.3318      2.00000
     18       7.3318      2.00000
     19       7.3318      2.00000
     20       8.2818      2.04135
     21       8.2818      2.04135
     22       9.1332      0.00000
     23      11.9008      0.00000

 k-point  12 :       0.3125    0.1875    0.1875
  band No.  band energies     occupation 
      1      -4.8492      2.00000
      2      -3.5638      2.00000
      3      -3.2506      2.00000
      4      -3.2506      2.00000
      5       2.0977      2.00000
      6       2.1601      2.00000
      7       2.1601      2.00000
      8       3.4997      2.00000
      9       3.5646      2.00000
     10       3.5646      2.00000
     11       3.7912      2.00000
     12       4.4252      2.00000
     13       4.4252      2.00000
     14       4.5318      2.00000
     15       4.9198      2.00000
     16       4.9474      2.00000
     17       7.3892      2.00000
     18       8.0874      2.00000
     19       8.2182      2.00700
     20       8.2182      2.00700
     21       9.1914      0.00000
     22       9.7486      0.00000
     23      11.5147      0.00000

 k-point  13 :       0.4375    0.1875    0.1875
  band No.  band energies     occupation 
      1      -4.2740      2.00000
      2      -3.7833      2.00000
      3      -2.9679      2.00000
      4      -2.9679      2.00000
      5       1.7489      2.00000
      6       1.7489      2.00000
      7       1.9930      2.00000
      8       2.5260      2.00000
      9       3.5024      2.00000
     10       3.5024      2.00000
     11       3.9291      2.00000
     12       3.9562      2.00000
     13       3.9562      2.00000
     14       4.1508      2.00000
     15       4.7832      2.00000
     16       4.8042      2.00000
     17       7.5149      2.00000
     18       7.7672      2.00000
     19       9.4105      0.00000
     20       9.4105      0.00000
     21      10.1434      0.00000
     22      10.6017      0.00000
     23      10.6017      0.00000

 k-point  14 :       0.3125    0.3125    0.1875
  band No.  band energies     occupation 
      1      -4.3909      2.00000
      2      -3.1835      2.00000
      3      -3.1835      2.00000
      4      -2.9374      2.00000
      5       1.5602      2.00000
      6       1.6490      2.00000
      7       1.6490      2.00000
      8       2.8519      2.00000
      9       3.4846      2.00000
     10       3.5565      2.00000
     11       3.5565      2.00000
     12       4.0609      2.00000
     13       4.0772      2.00000
     14       4.2599      2.00000
     15       4.2599      2.00000
     16       4.3786      2.00000
     17       8.2953      1.91296
     18       8.2953      1.91296
     19       8.7773      0.00000
     20       8.8442      0.00000
     21       9.3517      0.00000
     22      10.1209      0.00000
     23      11.3286      0.00000

 k-point  15 :       0.4375    0.3125    0.1875
  band No.  band energies     occupation 
      1      -3.8295      2.00000
      2      -3.3606      2.00000
      3      -2.8113      2.00000
      4      -2.7096      2.00000
      5       1.1539      2.00000
      6       1.2180      2.00000
      7       1.5628      2.00000
      8       2.0567      2.00000
      9       3.4601      2.00000
     10       3.4613      2.00000
     11       3.5938      2.00000
     12       3.7214      2.00000
     13       3.7377      2.00000
     14       3.7798      2.00000
     15       4.1369      2.00000
     16       4.1539      2.00000
     17       8.4413     -0.00714
     18       8.6800      0.00000
     19       9.4658      0.00000
     20       9.8954      0.00000
     21      10.2076      0.00000
     22      10.6212      0.00000
     23      10.9696      0.00000

 k-point  16 :       0.4375    0.4375    0.1875
  band No.  band energies     occupation 
      1      -3.2944      2.00000
      2      -2.8850      2.00000
      3      -2.8850      2.00000
      4      -2.6128      2.00000
      5       0.8499      2.00000
      6       1.0669      2.00000
      7       1.0669      2.00000
      8       1.4511      2.00000
      9       3.4200      2.00000
     10       3.4200      2.00000
     11       3.4713      2.00000
     12       3.4728      2.00000
     13       3.4866      2.00000
     14       3.6700      2.00000
     15       3.6700      2.00000
     16       3.7751      2.00000
     17       9.5619      0.00000
     18       9.5771      0.00000
     19       9.5771      0.00000
     20      10.2274      0.00000
     21      10.4710      0.00000
     22      10.6166      0.00000
     23      10.9650      0.00000

 k-point  17 :       0.3125    0.3125    0.3125
  band No.  band energies     occupation 
      1      -3.9447      2.00000
      2      -2.8168      2.00000
      3      -2.8168      2.00000
      4      -2.8168      2.00000
      5       1.1087      2.00000
      6       1.1087      2.00000
      7       1.1087      2.00000
      8       2.2183      2.00000
      9       3.3978      2.00000
     10       3.3978      2.00000
     11       3.3978      2.00000
     12       3.8677      2.00000
     13       3.8677      2.00000
     14       3.8865      2.00000
     15       3.8865      2.00000
     16       3.8865      2.00000
     17       8.9391      0.00000
     18       8.9391      0.00000
     19       8.9391      0.00000
     20       9.6214      0.00000
     21       9.6214      0.00000
     22      10.0120      0.00000
     23      11.4590      0.00000

 k-point  18 :       0.4375    0.3125    0.3125
  band No.  band energies     occupation 
      1      -3.3962      2.00000
      2      -2.9468      2.00000
      3      -2.4849      2.00000
      4      -2.4849      2.00000
      5       0.6679      2.00000
      6       0.6679      2.00000
      7       1.0428      2.00000
      8       1.5083      2.00000
      9       3.3410      2.00000
     10       3.3410      2.00000
     11       3.3595      2.00000
     12       3.4862      2.00000
     13       3.5383      2.00000
     14       3.5383      2.00000
     15       3.7495      2.00000
     16       3.7616      2.00000
     17       9.1127      0.00000
     18       9.3904      0.00000
     19       9.9390      0.00000
     20       9.9390      0.00000
     21      10.5212      0.00000
     22      10.8745      0.00000
     23      11.0112      0.00000

 k-point  19 :       0.4375    0.4375    0.3125
  band No.  band energies     occupation 
      1      -2.8718      2.00000
      2      -2.4873      2.00000
      3      -2.4873      2.00000
      4      -2.2789      2.00000
      5       0.3262      2.00000
      6       0.5158      2.00000
      7       0.5158      2.00000
      8       0.8947      2.00000
      9       3.2421      2.00000
     10       3.2421      2.00000
     11       3.2944      2.00000
     12       3.2978      2.00000
     13       3.3017      2.00000
     14       3.4203      2.00000
     15       3.4203      2.00000
     16       3.4594      2.00000
     17      10.0969      0.00000
     18      10.0969      0.00000
     19      10.2642      0.00000
     20      10.4620      0.00000
     21      10.5976      0.00000
     22      10.9385      0.00000
     23      11.0937      0.00000

 k-point  20 :       0.4375    0.4375    0.4375
  band No.  band energies     occupation 
      1      -2.3741      2.00000
      2      -2.0943      2.00000
      3      -2.0943      2.00000
      4      -2.0943      2.00000
      5       0.0334      2.00000
      6       0.0334      2.00000
      7       0.0334      2.00000
      8       0.3135      2.00000
      9       3.1386      2.00000
     10       3.1386      2.00000
     11       3.1386      2.00000
     12       3.1830      2.00000
     13       3.1830      2.00000
     14       3.1872      2.00000
     15       3.1872      2.00000
     16       3.1872      2.00000
     17      10.7733      0.00000
     18      10.7733      0.00000
     19      10.7733      0.00000
     20      10.9116      0.00000
     21      10.9116      0.00000
     22      11.1722      0.00000
     23      11.1722      0.00000


--------------------------------------------------------------------------------------------------------


 soft charge-density along one line, spin component           1
         0         1         2         3         4         5         6         7         8         9
 total charge-density along one line
 
 pseudopotential strength for first ion, spin component:           1
  9.511  -0.003   0.000   0.000   0.000   0.000   0.000   0.000
 -0.003  -0.002   0.000   0.000   0.000   0.000   0.000   0.000
  0.000   0.000  -3.725   0.000   0.000  -0.007   0.000   0.000
  0.000   0.000   0.000  -3.725   0.000   0.000  -0.007   0.000
  0.000   0.000   0.000   0.000  -3.725   0.000   0.000  -0.007
  0.000   0.000  -0.007   0.000   0.000  -0.758   0.000   0.000
  0.000   0.000   0.000  -0.007   0.000   0.000  -0.758   0.000
  0.000   0.000   0.000   0.000  -0.007   0.000   0.000  -0.758
 total augmentation occupancy for first ion, spin component:           1
  1.517  -0.788   0.000   0.000   0.000   0.000   0.000   0.000
 -0.788   0.472   0.000   0.000   0.000   0.000   0.000   0.000
  0.000   0.000   1.025   0.000   0.000   0.130   0.000   0.000
  0.000   0.000   0.000   1.025   0.000   0.000   0.130   0.000
  0.000   0.000   0.000   0.000   1.025   0.000   0.000   0.130
  0.000   0.000   0.130   0.000   0.000   0.018   0.000   0.000
  0.000   0.000   0.000   0.130   0.000   0.000   0.018   0.000
  0.000   0.000   0.000   0.000   0.130   0.000   0.000   0.018


------------------------ aborting loop because EDIFF is reached ----------------------------------------


    CHARGE:  cpu time    0.71: real time    0.71
    FORLOC:  cpu time    0.04: real time    0.04
    FORNL :  cpu time    4.85: real time    4.87
    STRESS:  cpu time    6.85: real time    6.85
    FORCOR:  cpu time    0.36: real time    0.36
    FORHAR:  cpu time    0.12: real time    0.12
    MIXING:  cpu time    0.01: real time    0.01

  FORCE on cell =-STRESS in cart. coord.  units (eV):
  Direction    XX          YY          ZZ          XY          YZ          ZX
  --------------------------------------------------------------------------------------
  Alpha Z   210.93744   210.93744   210.93744
  Ewald    -496.75618  -496.75618  -496.75618     0.00000     0.00000     0.00000
  Hartree    30.00130    30.00130    30.00130     0.00000     0.00000     0.00000
  E(xc)    -150.91916  -150.91916  -150.91916     0.00000     0.00000     0.00000
  Local     -53.28278   -53.28278   -53.28278     0.00000     0.00000     0.00000
  n-local   -26.68786   -24.52294   -17.44521    -0.20974    -0.50762     0.12728
  augment    10.42654    10.42654    10.42654     0.00000     0.00000     0.00000
  Kinetic   456.55260   479.06578   481.68944     3.60328     4.64616     2.59403
  Fock        0.00000     0.00000     0.00000     0.00000     0.00000     0.00000
  -------------------------------------------------------------------------------------
  Total      -0.04223    -0.04223    -0.04223     0.00000     0.00000     0.00000
  in kB      -0.75503    -0.75503    -0.75503     0.00000     0.00000     0.00000
  external pressure =       -0.76 kB  Pullay stress =        0.00 kB


 VOLUME and BASIS-vectors are now :
 -----------------------------------------------------------------------------
  energy-cutoff  :      750.00
  volume of cell :       89.62
      direct lattice vectors                 reciprocal lattice vectors
     4.475092365  0.000000000  0.000000000     0.223459075  0.000000000  0.000000000
     0.000000000  4.475092365  0.000000000     0.000000000  0.223459075  0.000000000
     0.000000000  0.000000000  4.475092365     0.000000000  0.000000000  0.223459075

  length of vectors
     4.475092365  4.475092365  4.475092365     0.223459075  0.223459075  0.223459075


 FORCES acting on ions
    electron-ion (+dipol)            ewald-force                    non-local-force                 convergence-correction
 -----------------------------------------------------------------------------------------------
   -.376E-15 -.185E-15 0.273E-13   0.350E-14 -.303E-14 0.258E-14   0.145E-23 0.165E-23 0.165E-23   -.719E-14 -.739E-14 0.435E-14
   -.393E-15 0.271E-13 -.249E-15   0.349E-14 -.222E-14 0.909E-15   0.165E-23 0.248E-23 0.158E-23   -.599E-14 -.341E-14 -.579E-15
   0.270E-13 -.247E-15 0.494E-12   0.632E-14 -.302E-14 0.927E-15   -.830E-24 -.828E-24 0.000E+00   0.490E-14 -.625E-14 -.153E-14
   0.271E-13 -.224E-12 -.789E-13   0.631E-14 -.222E-14 0.364E-14   0.166E-23 0.166E-23 -.414E-24   0.355E-14 -.409E-14 0.599E-14
   0.112E-14 -.581E-15 -.248E-14   -.441E-14 0.214E-14 -.494E-14   -.207E-23 0.408E-24 -.331E-23   -.249E-14 0.162E-14 -.296E-14
   0.740E-16 -.126E-14 -.194E-14   -.425E-14 0.503E-14 -.688E-15   0.414E-23 0.165E-23 0.165E-23   -.150E-14 0.327E-14 0.559E-15
   0.138E-14 -.141E-14 -.650E-13   -.538E-14 0.315E-15 -.692E-15   0.206E-23 -.248E-23 0.165E-23   0.612E-14 0.228E-14 0.816E-15
   0.325E-15 -.237E-12 0.288E-12   -.522E-14 0.320E-14 -.191E-14   0.825E-24 0.124E-23 0.165E-23   0.592E-14 0.307E-14 -.383E-14
 -----------------------------------------------------------------------------------------------
   0.562E-13 -.438E-12 0.661E-12   0.363E-15 0.204E-15 -.181E-15   0.889E-23 0.579E-23 0.447E-23   0.332E-14 -.109E-13 0.282E-14
 
 
 POSITION                                       TOTAL-FORCE (eV/Angst)
 -----------------------------------------------------------------------------------
      0.00000      0.00000      2.23755         0.000000      0.000000      0.000000
      0.00000      2.23755      0.00000         0.000000      0.000000      0.000000
      2.23755      0.00000      0.00000         0.000000      0.000000      0.000000
      2.23755      2.23755      2.23755         0.000000      0.000000      0.000000
      0.00000      0.00000      0.00000         0.000000      0.000000      0.000000
      0.00000      2.23755      2.23755         0.000000      0.000000      0.000000
      2.23755      0.00000      2.23755         0.000000      0.000000      0.000000
      2.23755      2.23755      0.00000         0.000000      0.000000      0.000000
 -----------------------------------------------------------------------------------
    total drift:                                0.000000      0.000000      0.000000


--------------------------------------------------------------------------------------------------------



  FREE ENERGIE OF THE ION-ELECTRON SYSTEM (eV)
  ---------------------------------------------------
  free  energy   TOTEN  =       -89.012328 eV

  energy  without entropy=      -89.013294  energy(sigma->0) =      -89.012650
 
 d Force = 0.0000000E+00[ 0.000E+00, 0.000E+00]  d Energy = 0.1509510E-04-0.151E-04
 d Force = 0.0000000E+00[ 0.000E+00, 0.000E+00]  d Ewald  = 0.2488069E+00-0.249E+00


--------------------------------------------------------------------------------------------------------


    POTLOK:  cpu time    0.42: real time    0.42


--------------------------------------------------------------------------------------------------------


 Quasi-Newton relaxation of ions (Broydens 2nd method)
  g(Force)  = 0.927E-61   g(Stress)= 0.323E-04

 retain information from N=  1 steps
 eigenvalues of (default step * inverse Hessian matrix)
  average eigenvalue of G=   0.4943
 eigenvalue spectrum of G is  0.4943


--------------------------------------------------------------------------------------------------------


  
 reached required accuracy - stopping structural energy minimisation
 writing wavefunctions
     LOOP+:  cpu time   33.89: real time   34.39
    4ORBIT:  cpu time    0.00: real time    0.00

 total amount of memory used by VASP on root node   108558. kBytes
========================================================================

   base      :      30000. kBytes
   nonl-proj :      25153. kBytes
   fftplans  :       7596. kBytes
   grid      :      13478. kBytes
   one-center:        124. kBytes
   wavefun   :      32207. kBytes
 
  
  
 General timing and accounting informations for this job:
 ========================================================
  
                  Total CPU time used (sec):      221.014
                            User time (sec):      220.788
                          System time (sec):        0.226
                         Elapsed time (sec):      230.155
  
                   Maximum memory used (kb):           0.
                   Average memory used (kb):           0.
  
                          Minor page faults:        45007
                          Major page faults:            0
                 Voluntary context switches:         1464
