<?xml version="1.0" encoding="ISO-8859-1"?>
<modeling>
 <generator>
  <i name="program" type="string">vasp </i>
  <i name="version" type="string">5.2.12  </i>
  <i name="subversion" type="string">11Nov11 complex                                                      parallel </i>
  <i name="platform" type="string">LinuxIFC </i>
  <i name="date" type="string">2012 10 26 </i>
  <i name="time" type="string">00:33:39 </i>
 </generator>
 <incar>
  <i type="string" name="PREC">normal</i>
  <i type="int" name="IBRION">     1</i>
  <i type="int" name="NSW">    50</i>
  <i type="int" name="ISIF">     3</i>
  <i name="ENCUT">    750.00000000</i>
  <i type="int" name="NBANDS">    23</i>
  <i name="SIGMA">      0.05000000</i>
 </incar>
 <kpoints>
  <generation param="Monkhorst-Pack">
   <v type="int" name="divisions">       8        8        8 </v>
   <v name="usershift">      0.00000000       0.00000000       0.00000000 </v>
   <v name="genvec1">      0.12500000       0.00000000       0.00000000 </v>
   <v name="genvec2">      0.00000000       0.12500000       0.00000000 </v>
   <v name="genvec3">      0.00000000       0.00000000       0.12500000 </v>
   <v name="shift">      0.50000000       0.50000000       0.50000000 </v>
  </generation>
  <varray name="kpointlist" >
   <v>       0.06250000       0.06250000       0.06250000 </v>
   <v>       0.18750000       0.06250000       0.06250000 </v>
   <v>       0.31250000       0.06250000       0.06250000 </v>
   <v>       0.43750000       0.06250000       0.06250000 </v>
   <v>       0.18750000       0.18750000       0.06250000 </v>
   <v>       0.31250000       0.18750000       0.06250000 </v>
   <v>       0.43750000       0.18750000       0.06250000 </v>
   <v>       0.31250000       0.31250000       0.06250000 </v>
   <v>       0.43750000       0.31250000       0.06250000 </v>
   <v>       0.43750000       0.43750000       0.06250000 </v>
   <v>       0.18750000       0.18750000       0.18750000 </v>
   <v>       0.31250000       0.18750000       0.18750000 </v>
   <v>       0.43750000       0.18750000       0.18750000 </v>
   <v>       0.31250000       0.31250000       0.18750000 </v>
   <v>       0.43750000       0.31250000       0.18750000 </v>
   <v>       0.43750000       0.43750000       0.18750000 </v>
   <v>       0.31250000       0.31250000       0.31250000 </v>
   <v>       0.43750000       0.31250000       0.31250000 </v>
   <v>       0.43750000       0.43750000       0.31250000 </v>
   <v>       0.43750000       0.43750000       0.43750000 </v>
  </varray>
  <varray name="weights" >
   <v>       0.01562500 </v>
   <v>       0.04687500 </v>
   <v>       0.04687500 </v>
   <v>       0.04687500 </v>
   <v>       0.04687500 </v>
   <v>       0.09375000 </v>
   <v>       0.09375000 </v>
   <v>       0.04687500 </v>
   <v>       0.09375000 </v>
   <v>       0.04687500 </v>
   <v>       0.01562500 </v>
   <v>       0.04687500 </v>
   <v>       0.04687500 </v>
   <v>       0.04687500 </v>
   <v>       0.09375000 </v>
   <v>       0.04687500 </v>
   <v>       0.01562500 </v>
   <v>       0.04687500 </v>
   <v>       0.04687500 </v>
   <v>       0.01562500 </v>
  </varray>
 </kpoints>
 <parameters>
  <separator name="general" >
   <i type="string" name="SYSTEM">unknown system</i>
   <i type="logical" name="LCOMPAT"> F  </i>
  </separator>
  <separator name="electronic" >
   <i type="string" name="PREC">normal</i>
   <i name="ENMAX">    750.00000000</i>
   <i name="ENAUG">    644.87300000</i>
   <i name="EDIFF">      0.00010000</i>
   <i type="int" name="IALGO">    38</i>
   <i type="int" name="IWAVPR">    11</i>
   <i type="int" name="NBANDS">    23</i>
   <i name="NELECT">     36.00000000</i>
   <i type="int" name="TURBO">     0</i>
   <i type="int" name="IRESTART">     0</i>
   <i type="int" name="NREBOOT">     0</i>
   <i type="int" name="NMIN">     0</i>
   <i name="EREF">      0.00000000</i>
   <separator name="electronic smearing" >
    <i type="int" name="ISMEAR">     1</i>
    <i name="SIGMA">      0.05000000</i>
    <i name="KSPACING">      0.50000000</i>
    <i type="logical" name="KGAMMA"> T  </i>
   </separator>
   <separator name="electronic projectors" >
    <i type="logical" name="LREAL"> F  </i>
    <v name="ROPT">      0.00000000      0.00000000</v>
    <i type="int" name="LMAXPAW">  -100</i>
    <i type="int" name="LMAXMIX">     2</i>
    <i type="logical" name="NLSPLINE"> F  </i>
   </separator>
   <separator name="electronic startup" >
    <i type="int" name="ISTART">     1</i>
    <i type="int" name="ICHARG">     0</i>
    <i type="int" name="INIWAV">     1</i>
   </separator>
   <separator name="electronic spin" >
    <i type="int" name="ISPIN">     1</i>
    <i type="logical" name="LNONCOLLINEAR"> F  </i>
    <v name="MAGMOM">      1.00000000      1.00000000      1.00000000      1.00000000      1.00000000      1.00000000      1.00000000      1.00000000</v>
    <i name="NUPDOWN">     -1.00000000</i>
    <i type="logical" name="LSORBIT"> F  </i>
    <v name="SAXIS">      0.00000000      0.00000000      1.00000000</v>
    <i type="logical" name="LSPIRAL"> F  </i>
    <v name="QSPIRAL">      0.00000000      0.00000000      0.00000000</v>
    <i type="logical" name="LZEROZ"> F  </i>
   </separator>
   <separator name="electronic exchange-correlation" >
    <i type="logical" name="LASPH"> F  </i>
    <i type="logical" name="LMETAGGA"> F  </i>
   </separator>
   <separator name="electronic convergence" >
    <i type="int" name="NELM">    60</i>
    <i type="int" name="NELMDL">     0</i>
    <i type="int" name="NELMIN">     2</i>
    <i name="ENINI">    750.00000000</i>
    <separator name="electronic convergence detail" >
     <i type="logical" name="LDIAG"> T  </i>
     <i type="logical" name="LSUBROT"> T  </i>
     <i name="WEIMIN">      0.00100000</i>
     <i name="EBREAK">      0.00000109</i>
     <i name="DEPER">      0.30000000</i>
     <i type="int" name="NRMM">     4</i>
     <i name="TIME">      0.40000000</i>
    </separator>
   </separator>
   <separator name="electronic mixer" >
    <i name="AMIX">      0.40000000</i>
    <i name="BMIX">      1.00000000</i>
    <i name="AMIN">      0.10000000</i>
    <i name="AMIX_MAG">      1.60000000</i>
    <i name="BMIX_MAG">      1.00000000</i>
    <separator name="electronic mixer details" >
     <i type="int" name="IMIX">     4</i>
     <i type="int" name="MAXMIX">   -45</i>
     <i name="WC">    100.00000000</i>
     <i type="int" name="INIMIX">     1</i>
     <i type="int" name="MIXPRE">     1</i>
     <i type="int" name="MREMOVE">     5</i>
    </separator>
   </separator>
   <separator name="electronic dipolcorrection" >
    <i type="logical" name="LDIPOL"> F  </i>
    <i type="logical" name="LMONO"> F  </i>
    <i type="int" name="IDIPOL">     0</i>
    <i name="EPSILON">      1.00000000</i>
    <v name="DIPOL">   -100.00000000   -100.00000000   -100.00000000</v>
    <i name="EFIELD">      0.00000000</i>
   </separator>
  </separator>
  <separator name="grids" >
   <i type="int" name="NGX">    30</i>
   <i type="int" name="NGY">    30</i>
   <i type="int" name="NGZ">    30</i>
   <i type="int" name="NGXF">    60</i>
   <i type="int" name="NGYF">    60</i>
   <i type="int" name="NGZF">    60</i>
   <i type="logical" name="ADDGRID"> F  </i>
  </separator>
  <separator name="ionic" >
   <i type="int" name="NSW">    50</i>
   <i type="int" name="IBRION">     1</i>
   <i type="int" name="ISIF">     3</i>
   <i name="PSTRESS">      0.00000000</i>
   <i name="EDIFFG">      0.00100000</i>
   <i type="int" name="NFREE">     0</i>
   <i name="POTIM">      0.50000000</i>
   <i name="SMASS">     -3.00000000</i>
   <i name="SCALEE">      1.00000000</i>
  </separator>
  <separator name="ionic md" >
   <i name="TEBEG">      0.00010000</i>
   <i name="TEEND">      0.00010000</i>
   <i type="int" name="NBLOCK">     1</i>
   <i type="int" name="KBLOCK">    50</i>
   <i type="int" name="NPACO">   256</i>
   <i name="APACO">     16.00000000</i>
  </separator>
  <separator name="symmetry" >
   <i type="int" name="ISYM">     2</i>
   <i name="SYMPREC">      0.00001000</i>
  </separator>
  <separator name="dos" >
   <i type="logical" name="LORBIT"> F  </i>
   <v name="RWIGS">     -1.00000000     -1.00000000</v>
   <i type="int" name="NEDOS">   301</i>
   <i name="EMIN">     10.00000000</i>
   <i name="EMAX">    -10.00000000</i>
   <i name="EFERMI">      0.00000000</i>
  </separator>
  <separator name="writing" >
   <i type="int" name="NWRITE">     2</i>
   <i type="logical" name="LWAVE"> T  </i>
   <i type="logical" name="LCHARG"> T  </i>
   <i type="logical" name="LPARD"> F  </i>
   <i type="logical" name="LVTOT"> F  </i>
   <i type="logical" name="LVHAR"> F  </i>
   <i type="logical" name="LELF"> F  </i>
   <i type="logical" name="LOPTICS"> F  </i>
   <v name="STM">      0.00000000      0.00000000      0.00000000      0.00000000      0.00000000      0.00000000      0.00000000</v>
  </separator>
  <separator name="performance" >
   <i type="int" name="NPAR">     1</i>
   <i type="int" name="NSIM">     4</i>
   <i type="int" name="NBLK">    -1</i>
   <i type="logical" name="LPLANE"> T  </i>
   <i type="logical" name="LSCALAPACK"> F  </i>
   <i type="logical" name="LSCAAWARE"> F  </i>
   <i type="logical" name="LSCALU"> F  </i>
   <i type="logical" name="LASYNC"> F  </i>
   <i type="logical" name="LORBITALREAL"> F  </i>
  </separator>
  <separator name="miscellaneous" >
   <i type="int" name="IDIOT">     3</i>
   <i type="logical" name="LMUSIC"> F  </i>
   <v name="POMASS">     12.01100000    180.94800000</v>
   <v name="DARWINR">      0.00000000      0.00000000</v>
   <v name="DARWINV">      1.00000000      1.00000000</v>
   <i type="logical" name="LCORR"> T  </i>
  </separator>
  <i type="logical" name="GGA_COMPAT"> T  </i>
  <i type="logical" name="LBERRY"> F  </i>
  <i type="int" name="ICORELEVEL">     0</i>
  <i type="logical" name="LDAU"> F  </i>
  <i type="int" name="I_CONSTRAINED_M">     0</i>
  <separator name="electronic exchange-correlation" >
   <i type="string" name="GGA">--</i>
   <i type="int" name="VOSKOWN">     0</i>
   <i type="logical" name="LHFCALC"> F  </i>
   <i type="string" name="PRECFOCK"></i>
   <i type="logical" name="LHFONE"> F  </i>
   <i type="logical" name="LRHFCALC"> F  </i>
   <i type="logical" name="LTHOMAS"> F  </i>
   <i type="logical" name="LMODELHF"> F  </i>
   <i name="ENCUT4O">     -1.00000000</i>
   <i type="int" name="EXXOEP">     0</i>
   <i type="int" name="FOURORBIT">     0</i>
   <i name="AEXX">      0.00000000</i>
   <i name="HFALPHA">      0.00000000</i>
   <i name="ALDAX">      1.00000000</i>
   <i name="AGGAX">      1.00000000</i>
   <i name="ALDAC">      1.00000000</i>
   <i name="AGGAC">      1.00000000</i>
   <i type="int" name="NKREDX">     1</i>
   <i type="int" name="NKREDY">     1</i>
   <i type="int" name="NKREDZ">     1</i>
   <i type="logical" name="SHIFTRED"> F  </i>
   <i type="logical" name="ODDONLY"> F  </i>
   <i type="logical" name="EVENONLY"> F  </i>
   <i type="int" name="LMAXFOCK">     0</i>
   <i type="int" name="NMAXFOCKAE">     0</i>
   <i type="logical" name="LFOCKAEDFT"> F  </i>
   <i name="HFSCREEN">      0.00000000</i>
   <i name="HFSCREENC">      0.00000000</i>
  </separator>
  <separator name="vdW DFT" >
   <i type="logical" name="LUSE_VDW"> F  </i>
   <i name="Zab_VDW">     -0.84910000</i>
   <i name="PARAM1">      0.12340000</i>
   <i name="PARAM2">      1.00000000</i>
   <i name="PARAM3">      0.00000000</i>
  </separator>
  <separator name="model GW" >
   <i type="int" name="MODEL_GW">     0</i>
   <i name="MODEL_EPS0">      6.83249195</i>
   <i name="MODEL_ALPHA">      1.00000000</i>
  </separator>
  <separator name="linear response parameters" >
   <i type="logical" name="LEPSILON"> F  </i>
   <i type="logical" name="LRPA"> F  </i>
   <i type="logical" name="LNABLA"> F  </i>
   <i type="logical" name="LVEL"> F  </i>
   <i type="int" name="KINTER">     0</i>
   <i name="CSHIFT">      0.10000000</i>
   <i name="OMEGAMAX">     -1.00000000</i>
  </separator>
  <separator name="orbital magnetization" >
   <i type="logical" name="NUCIND"> F  </i>
   <v name="MAGPOS">      0.00000000      0.00000000      0.00000000</v>
   <i type="logical" name="LNICSALL"> T  </i>
   <i type="logical" name="ORBITALMAG"> F  </i>
   <i type="logical" name="LMAGBLOCH"> F  </i>
   <i type="logical" name="LCHIMAG"> F  </i>
   <i type="logical" name="LGAUGE"> T  </i>
   <i type="int" name="MAGATOM">     0</i>
   <v name="MAGDIPOL">      0.00000000      0.00000000      0.00000000</v>
   <v name="AVECCONST">      0.00000000      0.00000000      0.00000000</v>
  </separator>
  <separator name="response functions" >
   <i type="logical" name="LADDER"> F  </i>
   <i type="logical" name="LHARTREE"> T  </i>
   <i type="int" name="IBSE">     0</i>
   <i type="logical" name="LTCTE"> F  </i>
   <i type="logical" name="LTETE"> F  </i>
   <i type="logical" name="LFXCEPS"> F  </i>
   <i type="logical" name="L2ORDER"> F  </i>
   <i type="logical" name="LUSEW"> F  </i>
   <i name="ENCUTGW">     -2.00000000</i>
   <i name="ENCUTGWSOFT">     -2.00000000</i>
   <i name="ENCUTLF">     -1.00000000</i>
   <i type="int" name="LMAXMP2">    -1</i>
   <i name="SCISSOR">      0.00000000</i>
   <i type="int" name="NOMEGA">     0</i>
   <i type="int" name="NOMEGAR">     0</i>
   <i type="int" name="NBANDSGW">    -1</i>
   <i type="int" name="NBANDSO">    -1</i>
   <i type="int" name="NBANDSV">    -1</i>
   <i name="OPTEMAX">      0.00000000</i>
   <i type="int" name="NELM">     1</i>
   <i type="int" name="DIM">     3</i>
   <i type="int" name="ANTIRES">     0</i>
   <i name="OMEGAMAX">    -30.00000000</i>
   <i name="OMEGATL">   -200.00000000</i>
   <i type="int" name="OMEGAGRID">     0</i>
   <i name="CSHIFT">     -0.10000000</i>
   <i type="logical" name="SELFENERGY"> F  </i>
   <i type="logical" name="LSPECTRAL"> F  </i>
   <i type="logical" name="ODDONLYGW"> F  </i>
   <i type="logical" name="EVENONLYGW"> F  </i>
   <i type="int" name="NKREDLFX">     1</i>
   <i type="int" name="NKREDLFY">     1</i>
   <i type="int" name="NKREDLFZ">     1</i>
   <i type="int" name="MAXMEM">  1800</i>
   <i type="int" name="TELESCOPE">     0</i>
  </separator>
 </parameters>
 <atominfo>
  <atoms>       8 </atoms>
  <types>       2 </types>
  <array name="atoms" >
   <dimension dim="1">ion</dimension>
   <field type="string">element</field>
   <field type="int">atomtype</field>
   <set>
    <rc><c>C </c><c>   1</c></rc>
    <rc><c>C </c><c>   1</c></rc>
    <rc><c>C </c><c>   1</c></rc>
    <rc><c>C </c><c>   1</c></rc>
    <rc><c>Ta</c><c>   2</c></rc>
    <rc><c>Ta</c><c>   2</c></rc>
    <rc><c>Ta</c><c>   2</c></rc>
    <rc><c>Ta</c><c>   2</c></rc>
   </set>
  </array>
  <array name="atomtypes" >
   <dimension dim="1">type</dimension>
   <field type="int">atomspertype</field>
   <field type="string">element</field>
   <field>mass</field>
   <field>valence</field>
   <field type="string">pseudopotential</field>
   <set>
    <rc><c>   4</c><c>C </c><c>     12.01100000</c><c>      4.00000000</c><c> PAW_PBE C 08Apr2002                    </c></rc>
    <rc><c>   4</c><c>Ta</c><c>    180.94800000</c><c>      5.00000000</c><c>  PAW_PBE Ta 17Jan2003                  </c></rc>
   </set>
  </array>
 </atominfo>
 <structure name="initialpos" >
  <crystal>
   <varray name="basis" >
    <v>       4.49958667       0.00000000       0.00000000 </v>
    <v>       0.00000000       4.49958667       0.00000000 </v>
    <v>       0.00000000       0.00000000       4.49958667 </v>
   </varray>
   <i name="volume">     91.09989261 </i>
   <varray name="rec_basis" >
    <v>       0.22224264       0.00000000       0.00000000 </v>
    <v>       0.00000000       0.22224264       0.00000000 </v>
    <v>       0.00000000       0.00000000       0.22224264 </v>
   </varray>
  </crystal>
  <varray name="positions" >
   <v>       0.00000000       0.00000000       0.50000000 </v>
   <v>       0.00000000       0.50000000       0.00000000 </v>
   <v>       0.50000000       0.00000000       0.00000000 </v>
   <v>       0.50000000       0.50000000       0.50000000 </v>
   <v>       0.00000000       0.00000000       0.00000000 </v>
   <v>       0.00000000       0.50000000       0.50000000 </v>
   <v>       0.50000000       0.00000000       0.50000000 </v>
   <v>       0.50000000       0.50000000       0.00000000 </v>
  </varray>
 </structure>
 <calculation>
  <scstep>
   <time name="dav">    7.99    8.90</time>
   <time name="total">    9.05    9.97</time>
   <energy>
    <i name="alphaZ">    207.51132765 </i>
    <i name="ewald">  -1482.15372264 </i>
    <i name="hartreedc">    -90.52627991 </i>
    <i name="XCdc">   -205.05088280 </i>
    <i name="pawpsdc">   1041.98819295 </i>
    <i name="pawaedc">   -753.86985603 </i>
    <i name="eentropy">      0.00116005 </i>
    <i name="bandstr">     81.89642788 </i>
    <i name="atom">   1111.21659498 </i>
    <i name="e_fr_energy">    -88.98703787 </i>
    <i name="e_wo_entrp">    -88.98819791 </i>
    <i name="e_0_energy">    -88.98742455 </i>
   </energy>
  </scstep>
  <scstep>
   <time name="dav">    7.81    8.08</time>
   <time name="total">    8.19    8.46</time>
   <energy>
    <i name="alphaZ">    207.51132765 </i>
    <i name="ewald">  -1482.15372264 </i>
    <i name="hartreedc">    -90.51298521 </i>
    <i name="XCdc">   -205.05261967 </i>
    <i name="pawpsdc">   1041.99516024 </i>
    <i name="pawaedc">   -753.87691086 </i>
    <i name="eentropy">      0.00117734 </i>
    <i name="bandstr">     81.88494155 </i>
    <i name="atom">   1111.21659498 </i>
    <i name="e_fr_energy">    -88.98703662 </i>
    <i name="e_wo_entrp">    -88.98821397 </i>
    <i name="e_0_energy">    -88.98742907 </i>
   </energy>
  </scstep>
  <parameters_embedded>
   <separator name="dft+d2" >
    <i type="logical" name="LVDW"> F  </i>
   </separator>
  </parameters_embedded>
  <structure>
   <crystal>
    <varray name="basis" >
     <v>       4.49958667       0.00000000       0.00000000 </v>
     <v>       0.00000000       4.49958667       0.00000000 </v>
     <v>       0.00000000       0.00000000       4.49958667 </v>
    </varray>
    <i name="volume">     91.09989261 </i>
    <varray name="rec_basis" >
     <v>       0.22224264       0.00000000       0.00000000 </v>
     <v>       0.00000000       0.22224264       0.00000000 </v>
     <v>       0.00000000       0.00000000       0.22224264 </v>
    </varray>
   </crystal>
   <varray name="positions" >
    <v>       0.00000000       0.00000000       0.50000000 </v>
    <v>       0.00000000       0.50000000       0.00000000 </v>
    <v>       0.50000000       0.00000000       0.00000000 </v>
    <v>       0.50000000       0.50000000       0.50000000 </v>
    <v>       0.00000000       0.00000000       0.00000000 </v>
    <v>       0.00000000       0.50000000       0.50000000 </v>
    <v>       0.50000000       0.00000000       0.50000000 </v>
    <v>       0.50000000       0.50000000       0.00000000 </v>
   </varray>
  </structure>
  <varray name="forces" >
   <v>       0.00000000       0.00000000       0.00000000 </v>
   <v>       0.00000000       0.00000000       0.00000000 </v>
   <v>       0.00000000       0.00000000       0.00000000 </v>
   <v>       0.00000000       0.00000000       0.00000000 </v>
   <v>       0.00000000       0.00000000       0.00000000 </v>
   <v>       0.00000000       0.00000000       0.00000000 </v>
   <v>       0.00000000       0.00000000       0.00000000 </v>
   <v>       0.00000000       0.00000000       0.00000000 </v>
  </varray>
  <varray name="stress" >
   <v>     -53.92906818       0.00000000       0.00000000 </v>
   <v>       0.00000000     -53.92906818       0.00000000 </v>
   <v>       0.00000000       0.00000000     -53.92906818 </v>
  </varray>
  <energy>
   <i name="e_fr_energy">    -88.98703662 </i>
   <i name="e_wo_entrp">    -88.98742907 </i>
   <i name="e_0_energy">      0.00117734 </i>
  </energy>
  <time name="totalsc">   32.41   34.54</time>
 </calculation>
 <calculation>
  <scstep>
   <time name="dav">   10.63   11.28</time>
   <time name="total">   11.86   12.51</time>
   <energy>
    <i name="alphaZ">    219.46212111 </i>
    <i name="ewald">  -1510.07726907 </i>
    <i name="hartreedc">    -92.21679634 </i>
    <i name="XCdc">   -203.88069003 </i>
    <i name="pawpsdc">   1042.00114354 </i>
    <i name="pawaedc">   -753.88278093 </i>
    <i name="eentropy">     -0.00135171 </i>
    <i name="bandstr">     98.43364680 </i>
    <i name="atom">   1111.21659498 </i>
    <i name="e_fr_energy">    -88.94538166 </i>
    <i name="e_wo_entrp">    -88.94402995 </i>
    <i name="e_0_energy">    -88.94493109 </i>
   </energy>
  </scstep>
  <scstep>
   <time name="dav">   12.25   12.54</time>
   <time name="total">   13.42   13.90</time>
   <energy>
    <i name="e_fr_energy">    -88.87788067 </i>
    <i name="e_wo_entrp">    -88.87871396 </i>
    <i name="e_0_energy">    -88.87815843 </i>
   </energy>
  </scstep>
  <scstep>
   <time name="dav">   11.53   12.36</time>
   <time name="total">   12.69   13.73</time>
   <energy>
    <i name="e_fr_energy">    -88.86386850 </i>
    <i name="e_wo_entrp">    -88.86450071 </i>
    <i name="e_0_energy">    -88.86407924 </i>
   </energy>
  </scstep>
  <scstep>
   <time name="dav">   11.98   12.17</time>
   <time name="total">   13.15   13.36</time>
   <energy>
    <i name="e_fr_energy">    -88.85962843 </i>
    <i name="e_wo_entrp">    -88.85978286 </i>
    <i name="e_0_energy">    -88.85967990 </i>
   </energy>
  </scstep>
  <scstep>
   <time name="dav">    9.54   10.07</time>
   <time name="total">   10.00   10.58</time>
   <energy>
    <i name="alphaZ">    219.46212111 </i>
    <i name="ewald">  -1510.07726907 </i>
    <i name="hartreedc">    -88.88231983 </i>
    <i name="XCdc">   -203.85806172 </i>
    <i name="pawpsdc">   1109.80609619 </i>
    <i name="pawaedc">   -822.31373029 </i>
    <i name="eentropy">      0.00023519 </i>
    <i name="bandstr">     95.78674936 </i>
    <i name="atom">   1111.21659498 </i>
    <i name="e_fr_energy">    -88.85958408 </i>
    <i name="e_wo_entrp">    -88.85981927 </i>
    <i name="e_0_energy">    -88.85966247 </i>
   </energy>
  </scstep>
  <structure>
   <crystal>
    <varray name="basis" >
     <v>       4.41638271       0.00000000       0.00000000 </v>
     <v>       0.00000000       4.41638271       0.00000000 </v>
     <v>       0.00000000       0.00000000       4.41638271 </v>
    </varray>
    <i name="volume">     86.13905474 </i>
    <varray name="rec_basis" >
     <v>       0.22642965       0.00000000       0.00000000 </v>
     <v>       0.00000000       0.22642965       0.00000000 </v>
     <v>       0.00000000       0.00000000       0.22642965 </v>
    </varray>
   </crystal>
   <varray name="positions" >
    <v>       0.00000000       0.00000000       0.50000000 </v>
    <v>       0.00000000       0.50000000       0.00000000 </v>
    <v>       0.50000000       0.00000000       0.00000000 </v>
    <v>       0.50000000       0.50000000       0.50000000 </v>
    <v>       0.00000000       0.00000000       0.00000000 </v>
    <v>       0.00000000       0.50000000       0.50000000 </v>
    <v>       0.50000000       0.00000000       0.50000000 </v>
    <v>       0.50000000       0.50000000       0.00000000 </v>
   </varray>
  </structure>
  <varray name="forces" >
   <v>       0.00000000       0.00000000       0.00000000 </v>
   <v>       0.00000000       0.00000000       0.00000000 </v>
   <v>       0.00000000       0.00000000       0.00000000 </v>
   <v>       0.00000000       0.00000000       0.00000000 </v>
   <v>       0.00000000       0.00000000       0.00000000 </v>
   <v>       0.00000000       0.00000000       0.00000000 </v>
   <v>       0.00000000       0.00000000       0.00000000 </v>
   <v>       0.00000000       0.00000000       0.00000000 </v>
  </varray>
  <varray name="stress" >
   <v>     145.49209766       0.00000000       0.00000000 </v>
   <v>       0.00000000     145.49209766       0.00000000 </v>
   <v>       0.00000000       0.00000000     145.49209766 </v>
  </varray>
  <energy>
   <i name="e_fr_energy">    -88.85958408 </i>
   <i name="e_wo_entrp">    -88.85966247 </i>
   <i name="e_0_energy">      0.00023519 </i>
  </energy>
  <time name="totalsc">   76.16   80.41</time>
 </calculation>
 <calculation>
  <scstep>
   <time name="dav">   10.66   11.54</time>
   <time name="total">   11.83   12.87</time>
   <energy>
    <i name="alphaZ">    210.83180313 </i>
    <i name="ewald">  -1490.01744740 </i>
    <i name="hartreedc">    -87.62059806 </i>
    <i name="XCdc">   -204.70477128 </i>
    <i name="pawpsdc">   1112.90877938 </i>
    <i name="pawaedc">   -825.43705643 </i>
    <i name="eentropy">      0.00140998 </i>
    <i name="bandstr">     83.76372372 </i>
    <i name="atom">   1111.21659498 </i>
    <i name="e_fr_energy">    -89.05756198 </i>
    <i name="e_wo_entrp">    -89.05897196 </i>
    <i name="e_0_energy">    -89.05803198 </i>
   </energy>
  </scstep>
  <scstep>
   <time name="dav">   12.80   13.11</time>
   <time name="total">   14.02   14.50</time>
   <energy>
    <i name="e_fr_energy">    -89.02197388 </i>
    <i name="e_wo_entrp">    -89.02265635 </i>
    <i name="e_0_energy">    -89.02220137 </i>
   </energy>
  </scstep>
  <scstep>
   <time name="dav">   11.82   12.00</time>
   <time name="total">   13.01   13.20</time>
   <energy>
    <i name="e_fr_energy">    -89.01439378 </i>
    <i name="e_wo_entrp">    -89.01508273 </i>
    <i name="e_0_energy">    -89.01462343 </i>
   </energy>
  </scstep>
  <scstep>
   <time name="dav">   12.54   12.55</time>
   <time name="total">   13.73   13.74</time>
   <energy>
    <i name="e_fr_energy">    -89.01238338 </i>
    <i name="e_wo_entrp">    -89.01346966 </i>
    <i name="e_0_energy">    -89.01274547 </i>
   </energy>
  </scstep>
  <scstep>
   <time name="dav">    8.38    8.38</time>
   <time name="total">    8.84    8.87</time>
   <energy>
    <i name="alphaZ">    210.83180313 </i>
    <i name="ewald">  -1490.01744740 </i>
    <i name="hartreedc">    -90.00685234 </i>
    <i name="XCdc">   -204.71842403 </i>
    <i name="pawpsdc">   1062.99161578 </i>
    <i name="pawaedc">   -775.06024532 </i>
    <i name="eentropy">      0.00100153 </i>
    <i name="bandstr">     85.74964119 </i>
    <i name="atom">   1111.21659498 </i>
    <i name="e_fr_energy">    -89.01231248 </i>
    <i name="e_wo_entrp">    -89.01331401 </i>
    <i name="e_0_energy">    -89.01264632 </i>
   </energy>
  </scstep>
  <structure>
   <crystal>
    <varray name="basis" >
     <v>       4.47583963       0.00000000       0.00000000 </v>
     <v>       0.00000000       4.47583963       0.00000000 </v>
     <v>       0.00000000       0.00000000       4.47583963 </v>
    </varray>
    <i name="volume">     89.66512349 </i>
    <varray name="rec_basis" >
     <v>       0.22342177       0.00000000       0.00000000 </v>
     <v>       0.00000000       0.22342177       0.00000000 </v>
     <v>       0.00000000       0.00000000       0.22342177 </v>
    </varray>
   </crystal>
   <varray name="positions" >
    <v>       0.00000000       0.00000000       0.50000000 </v>
    <v>       0.00000000       0.50000000       0.00000000 </v>
    <v>       0.50000000       0.00000000       0.00000000 </v>
    <v>       0.50000000       0.50000000       0.50000000 </v>
    <v>       0.00000000       0.00000000       0.00000000 </v>
    <v>       0.00000000       0.50000000       0.50000000 </v>
    <v>       0.50000000       0.00000000       0.50000000 </v>
    <v>       0.50000000       0.50000000       0.00000000 </v>
   </varray>
  </structure>
  <varray name="forces" >
   <v>       0.00000000       0.00000000       0.00000000 </v>
   <v>       0.00000000       0.00000000       0.00000000 </v>
   <v>       0.00000000       0.00000000       0.00000000 </v>
   <v>       0.00000000       0.00000000       0.00000000 </v>
   <v>       0.00000000       0.00000000       0.00000000 </v>
   <v>       0.00000000       0.00000000       0.00000000 </v>
   <v>       0.00000000       0.00000000       0.00000000 </v>
   <v>       0.00000000       0.00000000       0.00000000 </v>
  </varray>
  <varray name="stress" >
   <v>      -1.75538192       0.00000000       0.00000000 </v>
   <v>       0.00000000      -1.75538192       0.00000000 </v>
   <v>       0.00000000       0.00000000      -1.75538192 </v>
  </varray>
  <energy>
   <i name="e_fr_energy">    -89.01231248 </i>
   <i name="e_wo_entrp">    -89.01264632 </i>
   <i name="e_0_energy">      0.00100153 </i>
  </energy>
  <time name="totalsc">   76.01   77.84</time>
 </calculation>
 <calculation>
  <scstep>
   <time name="dav">   11.30   11.30</time>
   <time name="total">   12.48   12.49</time>
   <energy>
    <i name="alphaZ">    210.93743645 </i>
    <i name="ewald">  -1490.26625429 </i>
    <i name="hartreedc">    -90.05895626 </i>
    <i name="XCdc">   -204.70342473 </i>
    <i name="pawpsdc">   1060.92965782 </i>
    <i name="pawaedc">   -772.98488912 </i>
    <i name="eentropy">      0.00093604 </i>
    <i name="bandstr">     85.91656473 </i>
    <i name="atom">   1111.21659498 </i>
    <i name="e_fr_energy">    -89.01233438 </i>
    <i name="e_wo_entrp">    -89.01327042 </i>
    <i name="e_0_energy">    -89.01264639 </i>
   </energy>
  </scstep>
  <scstep>
   <time name="dav">    7.36    7.46</time>
   <time name="total">    7.82    7.95</time>
   <energy>
    <i name="alphaZ">    210.93743645 </i>
    <i name="ewald">  -1490.26625429 </i>
    <i name="hartreedc">    -90.02721651 </i>
    <i name="XCdc">   -204.70492682 </i>
    <i name="pawpsdc">   1061.17965075 </i>
    <i name="pawaedc">   -773.23722727 </i>
    <i name="eentropy">      0.00096636 </i>
    <i name="bandstr">     85.88864877 </i>
    <i name="atom">   1111.21659498 </i>
    <i name="e_fr_energy">    -89.01232757 </i>
    <i name="e_wo_entrp">    -89.01329393 </i>
    <i name="e_0_energy">    -89.01264969 </i>
   </energy>
  </scstep>
  <structure>
   <crystal>
    <varray name="basis" >
     <v>       4.47509236       0.00000000       0.00000000 </v>
     <v>       0.00000000       4.47509236       0.00000000 </v>
     <v>       0.00000000       0.00000000       4.47509236 </v>
    </varray>
    <i name="volume">     89.62022096 </i>
    <varray name="rec_basis" >
     <v>       0.22345907       0.00000000       0.00000000 </v>
     <v>       0.00000000       0.22345907       0.00000000 </v>
     <v>       0.00000000       0.00000000       0.22345907 </v>
    </varray>
   </crystal>
   <varray name="positions" >
    <v>       0.00000000       0.00000000       0.50000000 </v>
    <v>       0.00000000       0.50000000       0.00000000 </v>
    <v>       0.50000000       0.00000000       0.00000000 </v>
    <v>       0.50000000       0.50000000       0.50000000 </v>
    <v>       0.00000000       0.00000000       0.00000000 </v>
    <v>       0.00000000       0.50000000       0.50000000 </v>
    <v>       0.50000000       0.00000000       0.50000000 </v>
    <v>       0.50000000       0.50000000       0.00000000 </v>
   </varray>
  </structure>
  <varray name="forces" >
   <v>       0.00000000       0.00000000       0.00000000 </v>
   <v>       0.00000000       0.00000000       0.00000000 </v>
   <v>       0.00000000       0.00000000       0.00000000 </v>
   <v>       0.00000000       0.00000000       0.00000000 </v>
   <v>       0.00000000       0.00000000       0.00000000 </v>
   <v>       0.00000000       0.00000000       0.00000000 </v>
   <v>       0.00000000       0.00000000       0.00000000 </v>
   <v>       0.00000000       0.00000000       0.00000000 </v>
  </varray>
  <varray name="stress" >
   <v>      -0.75502938       0.00000000       0.00000000 </v>
   <v>       0.00000000      -0.75502938       0.00000000 </v>
   <v>       0.00000000       0.00000000      -0.75502938 </v>
  </varray>
  <energy>
   <i name="e_fr_energy">    -89.01232757 </i>
   <i name="e_wo_entrp">    -89.01264969 </i>
   <i name="e_0_energy">      0.00096636 </i>
  </energy>
  <time name="totalsc">   33.89   34.39</time>
  <eigenvalues>
   <array>
    <dimension dim="1">band</dimension>
    <dimension dim="2">kpoint</dimension>
    <dimension dim="3">spin</dimension>
    <field>eigene</field>
    <field>occ</field>
    <set>
     <set comment="spin 1">
      <set comment="kpoint 1">
       <r>   -6.1034    1.0000 </r>
       <r>   -4.0463    1.0000 </r>
       <r>   -4.0463    1.0000 </r>
       <r>   -4.0463    1.0000 </r>
       <r>    3.7383    1.0000 </r>
       <r>    3.7383    1.0000 </r>
       <r>    3.7383    1.0000 </r>
       <r>    3.9765    1.0000 </r>
       <r>    3.9765    1.0000 </r>
       <r>    3.9765    1.0000 </r>
       <r>    6.4720    1.0000 </r>
       <r>    6.4720    1.0000 </r>
       <r>    6.4720    1.0000 </r>
       <r>    6.5847    1.0000 </r>
       <r>    6.7400    1.0000 </r>
       <r>    6.7400    1.0000 </r>
       <r>    6.7400    1.0000 </r>
       <r>    6.9254    1.0000 </r>
       <r>    6.9254    1.0000 </r>
       <r>    7.6655    1.0000 </r>
       <r>    7.6655    1.0000 </r>
       <r>    8.3922   -0.0354 </r>
       <r>    9.9549    0.0000 </r>
      </set>
      <set comment="kpoint 2">
       <r>   -5.8379    1.0000 </r>
       <r>   -3.9960    1.0000 </r>
       <r>   -3.8493    1.0000 </r>
       <r>   -3.8493    1.0000 </r>
       <r>    3.1556    1.0000 </r>
       <r>    3.6020    1.0000 </r>
       <r>    3.6020    1.0000 </r>
       <r>    3.7830    1.0000 </r>
       <r>    3.7830    1.0000 </r>
       <r>    4.1306    1.0000 </r>
       <r>    5.4455    1.0000 </r>
       <r>    5.4455    1.0000 </r>
       <r>    5.5568    1.0000 </r>
       <r>    6.1417    1.0000 </r>
       <r>    6.3138    1.0000 </r>
       <r>    6.3742    1.0000 </r>
       <r>    6.6275    1.0000 </r>
       <r>    7.1941    1.0000 </r>
       <r>    7.3014    1.0000 </r>
       <r>    7.3014    1.0000 </r>
       <r>    8.4864    0.0000 </r>
       <r>    9.0305    0.0000 </r>
       <r>   10.1853    0.0000 </r>
      </set>
      <set comment="kpoint 3">
       <r>   -5.3549    1.0000 </r>
       <r>   -4.0111    1.0000 </r>
       <r>   -3.5330    1.0000 </r>
       <r>   -3.5330    1.0000 </r>
       <r>    2.5336    1.0000 </r>
       <r>    3.3008    1.0000 </r>
       <r>    3.3008    1.0000 </r>
       <r>    3.6255    1.0000 </r>
       <r>    3.6255    1.0000 </r>
       <r>    4.0684    1.0000 </r>
       <r>    4.3477    1.0000 </r>
       <r>    4.3477    1.0000 </r>
       <r>    4.4170    1.0000 </r>
       <r>    5.6379    1.0000 </r>
       <r>    6.0249    1.0000 </r>
       <r>    6.0922    1.0000 </r>
       <r>    6.4642    1.0000 </r>
       <r>    6.8155    1.0000 </r>
       <r>    8.2881    0.9984 </r>
       <r>    8.2881    0.9984 </r>
       <r>    9.2549    0.0000 </r>
       <r>   10.0230    0.0000 </r>
       <r>   10.6959    0.0000 </r>
      </set>
      <set comment="kpoint 4">
       <r>   -4.7662    1.0000 </r>
       <r>   -4.2599    1.0000 </r>
       <r>   -3.2722    1.0000 </r>
       <r>   -3.2722    1.0000 </r>
       <r>    2.3920    1.0000 </r>
       <r>    2.9355    1.0000 </r>
       <r>    2.9355    1.0000 </r>
       <r>    2.9376    1.0000 </r>
       <r>    3.5348    1.0000 </r>
       <r>    3.5348    1.0000 </r>
       <r>    3.8341    1.0000 </r>
       <r>    3.8341    1.0000 </r>
       <r>    4.7986    1.0000 </r>
       <r>    5.2149    1.0000 </r>
       <r>    5.8810    1.0000 </r>
       <r>    5.9200    1.0000 </r>
       <r>    6.3812    1.0000 </r>
       <r>    6.4938    1.0000 </r>
       <r>    9.4420    0.0000 </r>
       <r>    9.4420    0.0000 </r>
       <r>    9.8616    0.0000 </r>
       <r>   10.3606    0.0000 </r>
       <r>   10.5927    0.0000 </r>
      </set>
      <set comment="kpoint 5">
       <r>   -5.5764    1.0000 </r>
       <r>   -3.7884    1.0000 </r>
       <r>   -3.7884    1.0000 </r>
       <r>   -3.6560    1.0000 </r>
       <r>    2.9870    1.0000 </r>
       <r>    2.9870    1.0000 </r>
       <r>    3.1725    1.0000 </r>
       <r>    3.6829    1.0000 </r>
       <r>    3.8885    1.0000 </r>
       <r>    3.8885    1.0000 </r>
       <r>    5.0385    1.0000 </r>
       <r>    5.2761    1.0000 </r>
       <r>    5.3936    1.0000 </r>
       <r>    5.3936    1.0000 </r>
       <r>    5.5002    1.0000 </r>
       <r>    5.6638    1.0000 </r>
       <r>    7.2297    1.0000 </r>
       <r>    7.2297    1.0000 </r>
       <r>    7.2654    1.0000 </r>
       <r>    7.6413    1.0000 </r>
       <r>    8.5526    0.0000 </r>
       <r>    9.1970    0.0000 </r>
       <r>   11.0520    0.0000 </r>
      </set>
      <set comment="kpoint 6">
       <r>   -5.0996    1.0000 </r>
       <r>   -3.7857    1.0000 </r>
       <r>   -3.4473    1.0000 </r>
       <r>   -3.3481    1.0000 </r>
       <r>    2.3615    1.0000 </r>
       <r>    2.6270    1.0000 </r>
       <r>    2.6420    1.0000 </r>
       <r>    3.5864    1.0000 </r>
       <r>    3.6596    1.0000 </r>
       <r>    3.8466    1.0000 </r>
       <r>    4.0725    1.0000 </r>
       <r>    4.4299    1.0000 </r>
       <r>    4.5183    1.0000 </r>
       <r>    4.9705    1.0000 </r>
       <r>    5.2401    1.0000 </r>
       <r>    5.2436    1.0000 </r>
       <r>    7.1516    1.0000 </r>
       <r>    7.5950    1.0000 </r>
       <r>    8.1542    1.0000 </r>
       <r>    8.2412    1.0155 </r>
       <r>    9.3026    0.0000 </r>
       <r>    9.9347    0.0000 </r>
       <r>   11.4341    0.0000 </r>
      </set>
      <set comment="kpoint 7">
       <r>   -4.5176    1.0000 </r>
       <r>   -4.0196    1.0000 </r>
       <r>   -3.1463    1.0000 </r>
       <r>   -3.1075    1.0000 </r>
       <r>    2.2257    1.0000 </r>
       <r>    2.2276    1.0000 </r>
       <r>    2.2567    1.0000 </r>
       <r>    2.7700    1.0000 </r>
       <r>    3.5244    1.0000 </r>
       <r>    3.5399    1.0000 </r>
       <r>    3.9690    1.0000 </r>
       <r>    4.0173    1.0000 </r>
       <r>    4.3174    1.0000 </r>
       <r>    4.6128    1.0000 </r>
       <r>    5.0734    1.0000 </r>
       <r>    5.0963    1.0000 </r>
       <r>    7.1735    1.0000 </r>
       <r>    7.3456    1.0000 </r>
       <r>    9.3688    0.0000 </r>
       <r>    9.4020    0.0000 </r>
       <r>   10.1314    0.0000 </r>
       <r>   10.5353    0.0000 </r>
       <r>   10.5939    0.0000 </r>
      </set>
      <set comment="kpoint 8">
       <r>   -4.6337    1.0000 </r>
       <r>   -3.3999    1.0000 </r>
       <r>   -3.3999    1.0000 </r>
       <r>   -3.0634    1.0000 </r>
       <r>    1.9600    1.0000 </r>
       <r>    2.0190    1.0000 </r>
       <r>    2.0190    1.0000 </r>
       <r>    3.2699    1.0000 </r>
       <r>    3.5315    1.0000 </r>
       <r>    3.7530    1.0000 </r>
       <r>    3.7530    1.0000 </r>
       <r>    4.1888    1.0000 </r>
       <r>    4.2598    1.0000 </r>
       <r>    4.3187    1.0000 </r>
       <r>    4.3187    1.0000 </r>
       <r>    4.6116    1.0000 </r>
       <r>    8.2067    1.0014 </r>
       <r>    8.2067    1.0014 </r>
       <r>    8.2465    1.0200 </r>
       <r>    8.7668    0.0000 </r>
       <r>    9.7591    0.0000 </r>
       <r>   10.2542    0.0000 </r>
       <r>   11.1352    0.0000 </r>
      </set>
      <set comment="kpoint 9">
       <r>   -4.0659    1.0000 </r>
       <r>   -3.5914    1.0000 </r>
       <r>   -3.0158    1.0000 </r>
       <r>   -2.8804    1.0000 </r>
       <r>    1.5514    1.0000 </r>
       <r>    1.6260    1.0000 </r>
       <r>    1.8881    1.0000 </r>
       <r>    2.3968    1.0000 </r>
       <r>    3.5159    1.0000 </r>
       <r>    3.5739    1.0000 </r>
       <r>    3.8368    1.0000 </r>
       <r>    3.8381    1.0000 </r>
       <r>    3.8855    1.0000 </r>
       <r>    4.0047    1.0000 </r>
       <r>    4.1880    1.0000 </r>
       <r>    4.2703    1.0000 </r>
       <r>    8.2523    1.0254 </r>
       <r>    8.3523    0.1587 </r>
       <r>    9.3662    0.0000 </r>
       <r>    9.8670    0.0000 </r>
       <r>   10.4277    0.0000 </r>
       <r>   10.4931    0.0000 </r>
       <r>   10.9795    0.0000 </r>
      </set>
      <set comment="kpoint 10">
       <r>   -3.5258    1.0000 </r>
       <r>   -3.1107    1.0000 </r>
       <r>   -3.1107    1.0000 </r>
       <r>   -2.8220    1.0000 </r>
       <r>    1.2295    1.0000 </r>
       <r>    1.4361    1.0000 </r>
       <r>    1.4361    1.0000 </r>
       <r>    1.8135    1.0000 </r>
       <r>    3.5598    1.0000 </r>
       <r>    3.5944    1.0000 </r>
       <r>    3.5944    1.0000 </r>
       <r>    3.6001    1.0000 </r>
       <r>    3.6153    1.0000 </r>
       <r>    3.7255    1.0000 </r>
       <r>    3.7255    1.0000 </r>
       <r>    3.9003    1.0000 </r>
       <r>    9.1124    0.0000 </r>
       <r>    9.3397    0.0000 </r>
       <r>    9.3397    0.0000 </r>
       <r>   10.1266    0.0000 </r>
       <r>   10.7299    0.0000 </r>
       <r>   10.7456    0.0000 </r>
       <r>   11.2722    0.0000 </r>
      </set>
      <set comment="kpoint 11">
       <r>   -5.3192    1.0000 </r>
       <r>   -3.5843    1.0000 </r>
       <r>   -3.5843    1.0000 </r>
       <r>   -3.5843    1.0000 </r>
       <r>    2.6604    1.0000 </r>
       <r>    2.6604    1.0000 </r>
       <r>    2.6604    1.0000 </r>
       <r>    3.7070    1.0000 </r>
       <r>    3.7070    1.0000 </r>
       <r>    3.7070    1.0000 </r>
       <r>    4.4396    1.0000 </r>
       <r>    5.1386    1.0000 </r>
       <r>    5.1386    1.0000 </r>
       <r>    5.1386    1.0000 </r>
       <r>    5.2004    1.0000 </r>
       <r>    5.2004    1.0000 </r>
       <r>    7.3318    1.0000 </r>
       <r>    7.3318    1.0000 </r>
       <r>    7.3318    1.0000 </r>
       <r>    8.2818    1.0207 </r>
       <r>    8.2818    1.0207 </r>
       <r>    9.1332    0.0000 </r>
       <r>   11.9008    0.0000 </r>
      </set>
      <set comment="kpoint 12">
       <r>   -4.8492    1.0000 </r>
       <r>   -3.5638    1.0000 </r>
       <r>   -3.2506    1.0000 </r>
       <r>   -3.2506    1.0000 </r>
       <r>    2.0977    1.0000 </r>
       <r>    2.1601    1.0000 </r>
       <r>    2.1601    1.0000 </r>
       <r>    3.4997    1.0000 </r>
       <r>    3.5646    1.0000 </r>
       <r>    3.5646    1.0000 </r>
       <r>    3.7912    1.0000 </r>
       <r>    4.4252    1.0000 </r>
       <r>    4.4252    1.0000 </r>
       <r>    4.5318    1.0000 </r>
       <r>    4.9198    1.0000 </r>
       <r>    4.9474    1.0000 </r>
       <r>    7.3892    1.0000 </r>
       <r>    8.0874    1.0000 </r>
       <r>    8.2182    1.0035 </r>
       <r>    8.2182    1.0035 </r>
       <r>    9.1914    0.0000 </r>
       <r>    9.7486    0.0000 </r>
       <r>   11.5147    0.0000 </r>
      </set>
      <set comment="kpoint 13">
       <r>   -4.2740    1.0000 </r>
       <r>   -3.7833    1.0000 </r>
       <r>   -2.9679    1.0000 </r>
       <r>   -2.9679    1.0000 </r>
       <r>    1.7489    1.0000 </r>
       <r>    1.7489    1.0000 </r>
       <r>    1.9930    1.0000 </r>
       <r>    2.5260    1.0000 </r>
       <r>    3.5024    1.0000 </r>
       <r>    3.5024    1.0000 </r>
       <r>    3.9291    1.0000 </r>
       <r>    3.9562    1.0000 </r>
       <r>    3.9562    1.0000 </r>
       <r>    4.1508    1.0000 </r>
       <r>    4.7832    1.0000 </r>
       <r>    4.8042    1.0000 </r>
       <r>    7.5149    1.0000 </r>
       <r>    7.7672    1.0000 </r>
       <r>    9.4105    0.0000 </r>
       <r>    9.4105    0.0000 </r>
       <r>   10.1434    0.0000 </r>
       <r>   10.6017    0.0000 </r>
       <r>   10.6017    0.0000 </r>
      </set>
      <set comment="kpoint 14">
       <r>   -4.3909    1.0000 </r>
       <r>   -3.1835    1.0000 </r>
       <r>   -3.1835    1.0000 </r>
       <r>   -2.9374    1.0000 </r>
       <r>    1.5602    1.0000 </r>
       <r>    1.6490    1.0000 </r>
       <r>    1.6490    1.0000 </r>
       <r>    2.8519    1.0000 </r>
       <r>    3.4846    1.0000 </r>
       <r>    3.5565    1.0000 </r>
       <r>    3.5565    1.0000 </r>
       <r>    4.0609    1.0000 </r>
       <r>    4.0772    1.0000 </r>
       <r>    4.2599    1.0000 </r>
       <r>    4.2599    1.0000 </r>
       <r>    4.3786    1.0000 </r>
       <r>    8.2953    0.9565 </r>
       <r>    8.2953    0.9565 </r>
       <r>    8.7773    0.0000 </r>
       <r>    8.8442    0.0000 </r>
       <r>    9.3517    0.0000 </r>
       <r>   10.1209    0.0000 </r>
       <r>   11.3286    0.0000 </r>
      </set>
      <set comment="kpoint 15">
       <r>   -3.8295    1.0000 </r>
       <r>   -3.3606    1.0000 </r>
       <r>   -2.8113    1.0000 </r>
       <r>   -2.7096    1.0000 </r>
       <r>    1.1539    1.0000 </r>
       <r>    1.2180    1.0000 </r>
       <r>    1.5628    1.0000 </r>
       <r>    2.0567    1.0000 </r>
       <r>    3.4601    1.0000 </r>
       <r>    3.4613    1.0000 </r>
       <r>    3.5938    1.0000 </r>
       <r>    3.7214    1.0000 </r>
       <r>    3.7377    1.0000 </r>
       <r>    3.7798    1.0000 </r>
       <r>    4.1369    1.0000 </r>
       <r>    4.1539    1.0000 </r>
       <r>    8.4413   -0.0036 </r>
       <r>    8.6800    0.0000 </r>
       <r>    9.4658    0.0000 </r>
       <r>    9.8954    0.0000 </r>
       <r>   10.2076    0.0000 </r>
       <r>   10.6212    0.0000 </r>
       <r>   10.9696    0.0000 </r>
      </set>
      <set comment="kpoint 16">
       <r>   -3.2944    1.0000 </r>
       <r>   -2.8850    1.0000 </r>
       <r>   -2.8850    1.0000 </r>
       <r>   -2.6128    1.0000 </r>
       <r>    0.8499    1.0000 </r>
       <r>    1.0669    1.0000 </r>
       <r>    1.0669    1.0000 </r>
       <r>    1.4511    1.0000 </r>
       <r>    3.4200    1.0000 </r>
       <r>    3.4200    1.0000 </r>
       <r>    3.4713    1.0000 </r>
       <r>    3.4728    1.0000 </r>
       <r>    3.4866    1.0000 </r>
       <r>    3.6700    1.0000 </r>
       <r>    3.6700    1.0000 </r>
       <r>    3.7751    1.0000 </r>
       <r>    9.5619    0.0000 </r>
       <r>    9.5771    0.0000 </r>
       <r>    9.5771    0.0000 </r>
       <r>   10.2274    0.0000 </r>
       <r>   10.4710    0.0000 </r>
       <r>   10.6166    0.0000 </r>
       <r>   10.9650    0.0000 </r>
      </set>
      <set comment="kpoint 17">
       <r>   -3.9447    1.0000 </r>
       <r>   -2.8168    1.0000 </r>
       <r>   -2.8168    1.0000 </r>
       <r>   -2.8168    1.0000 </r>
       <r>    1.1087    1.0000 </r>
       <r>    1.1087    1.0000 </r>
       <r>    1.1087    1.0000 </r>
       <r>    2.2183    1.0000 </r>
       <r>    3.3978    1.0000 </r>
       <r>    3.3978    1.0000 </r>
       <r>    3.3978    1.0000 </r>
       <r>    3.8677    1.0000 </r>
       <r>    3.8677    1.0000 </r>
       <r>    3.8865    1.0000 </r>
       <r>    3.8865    1.0000 </r>
       <r>    3.8865    1.0000 </r>
       <r>    8.9391    0.0000 </r>
       <r>    8.9391    0.0000 </r>
       <r>    8.9391    0.0000 </r>
       <r>    9.6214    0.0000 </r>
       <r>    9.6214    0.0000 </r>
       <r>   10.0120    0.0000 </r>
       <r>   11.4590    0.0000 </r>
      </set>
      <set comment="kpoint 18">
       <r>   -3.3962    1.0000 </r>
       <r>   -2.9468    1.0000 </r>
       <r>   -2.4849    1.0000 </r>
       <r>   -2.4849    1.0000 </r>
       <r>    0.6679    1.0000 </r>
       <r>    0.6679    1.0000 </r>
       <r>    1.0428    1.0000 </r>
       <r>    1.5083    1.0000 </r>
       <r>    3.3410    1.0000 </r>
       <r>    3.3410    1.0000 </r>
       <r>    3.3595    1.0000 </r>
       <r>    3.4862    1.0000 </r>
       <r>    3.5383    1.0000 </r>
       <r>    3.5383    1.0000 </r>
       <r>    3.7495    1.0000 </r>
       <r>    3.7616    1.0000 </r>
       <r>    9.1127    0.0000 </r>
       <r>    9.3904    0.0000 </r>
       <r>    9.9390    0.0000 </r>
       <r>    9.9390    0.0000 </r>
       <r>   10.5212    0.0000 </r>
       <r>   10.8745    0.0000 </r>
       <r>   11.0112    0.0000 </r>
      </set>
      <set comment="kpoint 19">
       <r>   -2.8718    1.0000 </r>
       <r>   -2.4873    1.0000 </r>
       <r>   -2.4873    1.0000 </r>
       <r>   -2.2789    1.0000 </r>
       <r>    0.3262    1.0000 </r>
       <r>    0.5158    1.0000 </r>
       <r>    0.5158    1.0000 </r>
       <r>    0.8947    1.0000 </r>
       <r>    3.2421    1.0000 </r>
       <r>    3.2421    1.0000 </r>
       <r>    3.2944    1.0000 </r>
       <r>    3.2978    1.0000 </r>
       <r>    3.3017    1.0000 </r>
       <r>    3.4203    1.0000 </r>
       <r>    3.4203    1.0000 </r>
       <r>    3.4594    1.0000 </r>
       <r>   10.0969    0.0000 </r>
       <r>   10.0969    0.0000 </r>
       <r>   10.2642    0.0000 </r>
       <r>   10.4620    0.0000 </r>
       <r>   10.5976    0.0000 </r>
       <r>   10.9385    0.0000 </r>
       <r>   11.0937    0.0000 </r>
      </set>
      <set comment="kpoint 20">
       <r>   -2.3741    1.0000 </r>
       <r>   -2.0943    1.0000 </r>
       <r>   -2.0943    1.0000 </r>
       <r>   -2.0943    1.0000 </r>
       <r>    0.0334    1.0000 </r>
       <r>    0.0334    1.0000 </r>
       <r>    0.0334    1.0000 </r>
       <r>    0.3135    1.0000 </r>
       <r>    3.1386    1.0000 </r>
       <r>    3.1386    1.0000 </r>
       <r>    3.1386    1.0000 </r>
       <r>    3.1830    1.0000 </r>
       <r>    3.1830    1.0000 </r>
       <r>    3.1872    1.0000 </r>
       <r>    3.1872    1.0000 </r>
       <r>    3.1872    1.0000 </r>
       <r>   10.7733    0.0000 </r>
       <r>   10.7733    0.0000 </r>
       <r>   10.7733    0.0000 </r>
       <r>   10.9116    0.0000 </r>
       <r>   10.9116    0.0000 </r>
       <r>   11.1722    0.0000 </r>
       <r>   11.1722    0.0000 </r>
      </set>
     </set>
    </set>
   </array>
  </eigenvalues>
  <separator name="orbital magnetization" >
   <v name="MAGDIPOLOUT">      0.00000000      0.00000000      0.00000000</v>
  </separator>
 </calculation>
 <structure name="finalpos" >
  <crystal>
   <varray name="basis" >
    <v>       4.47509236       0.00000000       0.00000000 </v>
    <v>       0.00000000       4.47509236       0.00000000 </v>
    <v>       0.00000000       0.00000000       4.47509236 </v>
   </varray>
   <i name="volume">     89.62022096 </i>
   <varray name="rec_basis" >
    <v>       0.22345907       0.00000000       0.00000000 </v>
    <v>       0.00000000       0.22345907       0.00000000 </v>
    <v>       0.00000000       0.00000000       0.22345907 </v>
   </varray>
  </crystal>
  <varray name="positions" >
   <v>       0.00000000       0.00000000       0.50000000 </v>
   <v>       0.00000000       0.50000000       0.00000000 </v>
   <v>       0.50000000       0.00000000       0.00000000 </v>
   <v>       0.50000000       0.50000000       0.50000000 </v>
   <v>       0.00000000       0.00000000       0.00000000 </v>
   <v>       0.00000000       0.50000000       0.50000000 </v>
   <v>       0.50000000       0.00000000       0.50000000 </v>
   <v>       0.50000000       0.50000000       0.00000000 </v>
  </varray>
 </structure>
</modeling>
