    5    5   50    1
  0.1024000E+03  0.8000000E-09  0.8000000E-09  0.8000000E-09  0.5000000E-15
  1.000000000000000E-004
  CAR 
 unknown system                          
    8    1    8
 
  0.0000000E+00  0.0000000E+00  0.0000000E+00  0.1000000E+01
   1      -16.747892
   2       -9.142775
   3       -9.142775
   4       -9.142775
   5       -0.643034
   6        1.712973
   7        1.712974
   8        1.712975
