       N       E                     dE             d eps       ncg     rms          rms(c)
DAV:   1     0.523933013904E+02    0.52393E+02   -0.17775E+03    16   0.398E+02
DAV:   2    -0.129184955528E+02   -0.65312E+02   -0.65312E+02    24   0.930E+01
DAV:   3    -0.268494033483E+02   -0.13931E+02   -0.13931E+02    16   0.693E+01
DAV:   4    -0.275625404396E+02   -0.71314E+00   -0.71314E+00    32   0.183E+01
DAV:   5    -0.275629053726E+02   -0.36493E-03   -0.36493E-03    32   0.419E-01    0.849E+00
DAV:   6    -0.246370391122E+02    0.29259E+01   -0.86958E+00    24   0.167E+01    0.381E+00
DAV:   7    -0.241290756805E+02    0.50796E+00   -0.85753E-01    32   0.507E+00    0.191E+00
DAV:   8    -0.239694493564E+02    0.15963E+00   -0.18872E-01    16   0.299E+00    0.266E-01
DAV:   9    -0.239682819393E+02    0.11674E-02   -0.78356E-03    16   0.525E-01    0.153E-01
DAV:  10    -0.239665601348E+02    0.17218E-02   -0.13890E-03    16   0.265E-01    0.700E-02
DAV:  11    -0.239746073266E+02   -0.80472E-02   -0.22371E-03    16   0.293E-01    0.736E-02
DAV:  12    -0.239765732226E+02   -0.19659E-02   -0.68631E-04    16   0.182E-01    0.245E-02
DAV:  13    -0.239778408092E+02   -0.12676E-02   -0.20098E-04    16   0.884E-02    0.629E-03
DAV:  14    -0.239778780230E+02   -0.37214E-04   -0.37593E-06    16   0.131E-02
   1 F= -.23977878E+02 E0= -.23977878E+02  d E =-.239779E+02
       N       E                     dE             d eps       ncg     rms          rms(c)
DAV:   1    -0.239868958005E+02   -0.90550E-02   -0.45535E-01    16   0.588E+00    0.367E-01
DAV:   2    -0.239822902042E+02    0.46056E-02   -0.12509E-02    24   0.711E-01    0.140E-01
DAV:   3    -0.239819128900E+02    0.37731E-03   -0.54411E-03    24   0.415E-01    0.528E-02
DAV:   4    -0.239819143592E+02   -0.14692E-05   -0.64027E-06    16   0.245E-02
   2 F= -.23981914E+02 E0= -.23981914E+02  d E =-.403634E-02
       N       E                     dE             d eps       ncg     rms          rms(c)
DAV:   1    -0.239846862806E+02   -0.27734E-02   -0.60959E-02    16   0.222E+00    0.137E-01
DAV:   2    -0.239840125006E+02    0.67378E-03   -0.20460E-03    24   0.241E-01    0.458E-02
DAV:   3    -0.239839749587E+02    0.37542E-04   -0.60209E-04    24   0.142E-01
   3 F= -.23983975E+02 E0= -.23983975E+02  d E =-.206060E-02
