 vasp.5.2.12 11Nov11 complex                                                    
  
 executed on             LinuxIFC date 2012.10.31  15:25:10
 running on    1 nodes
 distr:  one band on    1 nodes,    1 groups


--------------------------------------------------------------------------------------------------------


 INCAR:
 POTCAR:   PAW_PBE H 15Jun2001                    
 POTCAR:   PAW_PBE C 08Apr2002                    
 POTCAR:   PAW_PBE H 15Jun2001                    
   VRHFIN =H: ultrasoft test                                                    
   LEXCH  = PE                                                                  
   EATOM  =    12.4884 eV,     .9179 Ry                                         
                                                                                
   TITEL  = PAW_PBE H 15Jun2001                                                 
   LULTRA =        F    use ultrasoft PP ?                                      
   IUNSCR =        0    unscreen: 0-lin 1-nonlin 2-no                           
   RPACOR =     .000    partial core radius                                     
   POMASS =    1.000; ZVAL   =    1.000    mass and valenz                      
   RCORE  =    1.100    outmost cutoff radius                                   
   RWIGS  =     .700; RWIGS  =     .370    wigner-seitz radius (au A)           
   ENMAX  =  250.000; ENMIN  =  200.000 eV                                      
   RCLOC  =     .701    cutoff for local pot                                    
   LCOR   =        T    correct aug charges                                     
   LPAW   =        T    paw PP                                                  
   EAUG   =  400.000                                                            
   RMAX   =    2.174    core radius for proj-oper                               
   RAUG   =    1.200    factor for augmentation sphere                          
   RDEP   =    1.112    radius for radial grids                                 
   QCUT   =   -5.749; QGAM   =   11.498    optimization parameters              
                                                                                
   Description                                                                  
     l     E      TYP  RCUT    TYP  RCUT                                        
     0   .000     23  1.100                                                     
     0   .500     23  1.100                                                     
     1  -.300     23  1.100                                                     
  local pseudopotential read in
  atomic valenz-charges read in
  non local Contribution for L=           0  read in
    real space projection operators read in
  non local Contribution for L=           0  read in
    real space projection operators read in
  non local Contribution for L=           1  read in
    real space projection operators read in
    PAW grid and wavefunctions read in
 
   number of l-projection  operators is LMAX  =           3
   number of lm-projection operators is LMMAX =           5
 
 POTCAR:   PAW_PBE C 08Apr2002                    
   VRHFIN =C: s2p2                                                              
   LEXCH  = PE                                                                  
   EATOM  =   147.1560 eV,   10.8157 Ry                                         
                                                                                
   TITEL  = PAW_PBE C 08Apr2002                                                 
   LULTRA =        F    use ultrasoft PP ?                                      
   IUNSCR =        0    unscreen: 0-lin 1-nonlin 2-no                           
   RPACOR =     .000    partial core radius                                     
   POMASS =   12.011; ZVAL   =    4.000    mass and valenz                      
   RCORE  =    1.500    outmost cutoff radius                                   
   RWIGS  =    1.630; RWIGS  =     .863    wigner-seitz radius (au A)           
   ENMAX  =  400.000; ENMIN  =  300.000 eV                                      
   ICORE  =        2    local potential                                         
   LCOR   =        T    correct aug charges                                     
   LPAW   =        T    paw PP                                                  
   EAUG   =  644.873                                                            
   DEXC   =     .000                                                            
   RMAX   =    2.266    core radius for proj-oper                               
   RAUG   =    1.300    factor for augmentation sphere                          
   RDEP   =    1.501    radius for radial grids                                 
   RDEPT  =    1.300    core radius for aug-charge                              
   QCUT   =   -5.516; QGAM   =   11.032    optimization parameters              
                                                                                
   Description                                                                  
     l     E      TYP  RCUT    TYP  RCUT                                        
     0   .000     23  1.200                                                     
     0   .000     23  1.200                                                     
     1   .000     23  1.500                                                     
     1  2.500     23  1.500                                                     
     2   .000      7  1.500                                                     
  local pseudopotential read in
  atomic valenz-charges read in
  non local Contribution for L=           0  read in
    real space projection operators read in
  non local Contribution for L=           0  read in
    real space projection operators read in
  non local Contribution for L=           1  read in
    real space projection operators read in
  non local Contribution for L=           1  read in
    real space projection operators read in
    PAW grid and wavefunctions read in
 
   number of l-projection  operators is LMAX  =           4
   number of lm-projection operators is LMMAX =           8
 
 PAW_PBE H 15Jun2001                    :
 energy of atom  1       EATOM=  -12.4884
 kinetic energy error for atom=    0.0203 (will be added to EATOM!!)
 PAW_PBE C 08Apr2002                    :
 energy of atom  2       EATOM= -147.1560
 kinetic energy error for atom=    0.0854 (will be added to EATOM!!)
 
 
 POSCAR:  H  C                                   
  positions in cartesian coordinates
  No initial velocities read in
 exchange correlation table for  LEXCH =        8
   RHO(1)=    0.500       N(1)  =     2000
   RHO(2)=  100.500       N(2)  =     4000
 


--------------------------------------------------------------------------------------------------------


 ion  position               nearest neighbor table
   1  0.579  0.579  0.579-   5 1.09
   2  0.421  0.421  0.579-   5 1.09
   3  0.579  0.421  0.421-   5 1.09
   4  0.421  0.579  0.421-   5 1.09
   5  0.500  0.500  0.500-   1 1.09   2 1.09   3 1.09   4 1.09
 
  LATTYP: Found a simple cubic cell.
 ALAT       =     8.0000000000
  
  Lattice vectors:
  
 A1 = (   8.0000000000,   0.0000000000,   0.0000000000)
 A2 = (   0.0000000000,   8.0000000000,   0.0000000000)
 A3 = (   0.0000000000,   0.0000000000,   8.0000000000)
 Subroutine PRICEL returns:
 Original cell was already a primitive cell.
 

Analysis of symmetry for initial positions (statically):

 Routine SETGRP: Setting up the symmetry group for a 
 simple cubic supercell.


 Subroutine GETGRP returns: Found 24 space group operations
 (whereof 24 operations were pure point group operations)
 out of a pool of 48 trial point group operations.


The static configuration has the point symmetry T_d .

Analysis of symmetry for dynamics (positions and initial velocities):

 Subroutine DYNSYM returns: Found 24 space group operations
 (whereof 24 operations were pure point group operations)
 out of a pool of 24 trial space group operations
 (whereof 24 operations were pure point group operations)
 and found also     1 'primitive' translations


The dynamic configuration has the point symmetry T_d .
 
 
 KPOINTS: KPOINTS created by Atomic Simulation Env

Automatic generation of k-mesh.
 
 Subroutine IBZKPT returns following result:
 ===========================================
 
 Found      1 irreducible k-points:
 
 Following reciprocal coordinates:
            Coordinates               Weight
  0.000000  0.000000  0.000000      1.000000
 
 Following cartesian coordinates:
            Coordinates               Weight
  0.000000  0.000000  0.000000      1.000000
 


--------------------------------------------------------------------------------------------------------




 Dimension of arrays:
   k-points           NKPTS =      1   k-points in BZ     NKDIM =      1   number of bands    NBANDS=      8
   number of dos      NEDOS =    301   number of ions     NIONS =      5
   non local maximal  LDIM  =      4   non local SUM 2l+1 LMDIM =      8
   total plane-waves  NPLWV =  64000
   max r-space proj   IRMAX =      1   max aug-charges    IRDMAX=   1674
   dimension x,y,z NGX =    40 NGY =   40 NGZ =   40
   dimension x,y,z NGXF=    80 NGYF=   80 NGZF=   80
   support grid    NGXF=    80 NGYF=   80 NGZF=   80
   ions per type =               4   1
 NGX,Y,Z   is equivalent  to a cutoff of   8.31,  8.31,  8.31 a.u.
 NGXF,Y,Z  is equivalent  to a cutoff of  16.62, 16.62, 16.62 a.u.


 I would recommend the setting:
   dimension x,y,z NGX =    37 NGY =   37 NGZ =   37
 SYSTEM =  unknown system                          
 POSCAR =   H  C                                   

 Startparameter for this run:
   NWRITE =      2    write-flag & timer
   PREC   = normal    normal or accurate (medium, high low for compatibility)
   ISTART =      0    job   : 0-new  1-cont  2-samecut
   ICHARG =      2    charge: 1-file 2-atom 10-const
   ISPIN  =      1    spin polarized calculation?
   LNONCOLLINEAR =      F non collinear calculations
   LSORBIT =      F    spin-orbit coupling
   INIWAV =      1    electr: 0-lowe 1-rand  2-diag
   LASPH  =      F    aspherical Exc in radial PAW
   METAGGA=      F    non-selfconsistent MetaGGA calc.

 Electronic Relaxation 1
   ENCUT  =  350.0 eV  25.72 Ry    5.07 a.u.  12.20 12.20 12.20*2*pi/ulx,y,z
   ENINI  =  350.0     initial cutoff
   ENAUG  =  644.9 eV  augmentation charge cutoff
   NELM   =     60;   NELMIN=  2; NELMDL= -5     # of ELM steps 
   EDIFF  = 0.1E-03   stopping-criterion for ELM
   LREAL  =      F    real-space projection
   NLSPLINE    = F    spline interpolate recip. space projectors
   LCOMPAT=      F    compatible to vasp.4.4
   GGA_COMPAT  = T    GGA compatible to vasp.4.4-vasp.4.6
   LMAXPAW     = -100 max onsite density
   LMAXMIX     =    2 max onsite mixed and CHGCAR
   VOSKOWN=      0    Vosko Wilk Nusair interpolation
   ROPT   =    0.00000   0.00000
 Ionic relaxation
   EDIFFG = -.5E-01   stopping-criterion for IOM
   NSW    =     50    number of steps for IOM
   NBLOCK =      1;   KBLOCK =     50    inner block; outer block 
   IBRION =      1    ionic relax: 0-MD 1-quasi-New 2-CG
   NFREE  =      0    steps in history (QN), initial steepest desc. (CG)
   ISIF   =      2    stress and relaxation
   IWAVPR =     11    prediction:  0-non 1-charg 2-wave 3-comb
   ISYM   =      2    0-nonsym 1-usesym 2-fastsym
   LCORR  =      T    Harris-Foulkes like correction to forces

   POTIM  = 0.5000    time-step for ionic-motion
   TEIN   =    0.0    initial temperature
   TEBEG  =    0.0;   TEEND  =   0.0 temperature during run
   SMASS  =  -3.00    Nose mass-parameter (am)
   estimated Nose-frequenzy (Omega)   =  0.10E-29 period in steps =****** mass=  -0.146E-26a.u.
   SCALEE = 1.0000    scale energy and forces
   NPACO  =    256;   APACO  = 16.0  distance and # of slots for P.C.
   PSTRESS=    0.0 pullay stress

  Mass of Ions in am
   POMASS =   1.00 12.01
  Ionic Valenz
   ZVAL   =   1.00  4.00
  Atomic Wigner-Seitz radii
   RWIGS  =  -1.00 -1.00
  virtual crystal weights 
   VCA    =   1.00  1.00
   NELECT =       8.0000    total number of electrons
   NUPDOWN=      -1.0000    fix difference up-down

 DOS related values:
   EMIN   =  10.00;   EMAX   =-10.00  energy-range for DOS
   EFERMI =   0.00
   ISMEAR =     0;   SIGMA  =   0.01  broadening in eV -4-tet -1-fermi 0-gaus

 Electronic relaxation 2 (details)
   IALGO  =     38    algorithm
   LDIAG  =      T    sub-space diagonalisation (order eigenvalues)
   LSUBROT=      T    optimize rotation matrix (better conditioning)
   TURBO    =      0    0=normal 1=particle mesh
   IRESTART =      0    0=no restart 2=restart with 2 vectors
   NREBOOT  =      0    no. of reboots
   NMIN     =      0    reboot dimension
   EREF     =   0.00    reference energy to select bands
   IMIX   =      4    mixing-type and parameters
     AMIX     =   0.40;   BMIX     =  1.00
     AMIX_MAG =   1.60;   BMIX_MAG =  1.00
     AMIN     =   0.10
     WC   =   100.;   INIMIX=   1;  MIXPRE=   1

 Intra band minimization:
   WEIMIN = 0.0010     energy-eigenvalue tresh-hold
   EBREAK =  0.31E-05  absolut break condition
   DEPER  =   0.30     relativ break condition  

   TIME   =   0.40     timestep for ELM

  volume/ion in A,a.u.               =     102.40       691.03
  Fermi-wavevector in a.u.,A,eV,Ry     =   0.409275  0.773417  2.279054  0.167506
  Thomas-Fermi vector in A             =   1.364147
 
 Write flags
   LWAVE  =      T    write WAVECAR
   LCHARG =      T    write CHGCAR
   LVTOT  =      F    write LOCPOT, total local potential
   LVHAR  =      F    write LOCPOT, Hartree potential only
   LELF   =      F    write electronic localiz. function (ELF)
   LORBIT =      0    0 simple, 1 ext, 2 COOP (PROOUT)


 Dipole corrections
   LMONO  =      F    monopole corrections only (constant potential shift)
   LDIPOL =      F    correct potential (dipole corrections)
   IDIPOL =      0    1-x, 2-y, 3-z, 4-all directions 
   EPSILON=  1.0000000 bulk dielectric constant

 Exchange correlation treatment:
   GGA     =    --    GGA type
   LEXCH   =     8    internal setting for exchange type
   VOSKOWN=      0    Vosko Wilk Nusair interpolation
   LHFCALC =     F    Hartree Fock is set to
   LHFONE  =     F    Hartree Fock one center treatment
   AEXX    =    0.0000 exact exchange contribution

 Linear response parameters
   LEPSILON=     F    determine dielectric tensor
   LRPA    =     F    only Hartree local field effects (RPA)
   LNABLA  =     F    use nabla operator in PAW spheres
   LVEL    =     F    velocity operator in full k-point grid
   LINTERFAST=   F  fast interpolation
   KINTER  =     0    interpolate to denser k-point grid
   CSHIFT  =0.1000    complex shift for real part using Kramers Kronig
   OMEGAMAX=  -1.0    maximum frequency
   RTIME   =    0.100 relaxation time in fs

 Orbital magnetization related:
   ORBITALMAG=     F  switch on orbital magnetization
   LCHIMAG   =     F  perturbation theory with respect to B field
   DQ        =  0.001000  dq finite difference perturbation B field



--------------------------------------------------------------------------------------------------------


 quasi-Newton-method for relaxation of ions
 charge density and potential will be updated during run
 non-spin polarized calculation
 Variant of blocked Davidson
 Davidson routine will perform the subspace rotation
 perform sub-space diagonalisation
    after iterative eigenvector-optimisation
 modified Broyden-mixing scheme, WC =      100.0
 initial mixing is a Kerker type mixing with AMIX =  0.4000 and BMIX =      1.0000
 Hartree-type preconditioning will be used
 using additional bands            4
 reciprocal scheme for non local part
 calculate Harris-corrections to forces 
   (improved forces if not selfconsistent)
 use gradient corrections 
 use of overlap-Matrix (Vanderbilt PP)
 Gauss-broadening in eV      SIGMA  =   0.01


--------------------------------------------------------------------------------------------------------


  energy-cutoff  :      350.00
  volume of cell :      512.00
      direct lattice vectors                 reciprocal lattice vectors
     8.000000000  0.000000000  0.000000000     0.125000000  0.000000000  0.000000000
     0.000000000  8.000000000  0.000000000     0.000000000  0.125000000  0.000000000
     0.000000000  0.000000000  8.000000000     0.000000000  0.000000000  0.125000000

  length of vectors
     8.000000000  8.000000000  8.000000000     0.125000000  0.125000000  0.125000000


 
 k-points in units of 2pi/SCALE and weight: KPOINTS created by Atomic Simulation Env
   0.00000000  0.00000000  0.00000000       1.000
 
 k-points in reciprocal lattice and weights: KPOINTS created by Atomic Simulation Env
   0.00000000  0.00000000  0.00000000       1.000
 
 position of ions in fractional coordinates (direct lattice) 
   0.57863975  0.57863975  0.57863975
   0.42136025  0.42136025  0.57863975
   0.57863975  0.42136025  0.42136025
   0.42136025  0.57863975  0.42136025
   0.50000000  0.50000000  0.50000000
 
 position of ions in cartesian coordinates  (Angst):
   4.62911800  4.62911800  4.62911800
   3.37088200  3.37088200  4.62911800
   4.62911800  3.37088200  3.37088200
   3.37088200  4.62911800  3.37088200
   4.00000000  4.00000000  4.00000000
 


--------------------------------------------------------------------------------------------------------


 k-point  1 :  0.00000.00000.0000  plane waves:    7521

 maximum and minimum number of plane-waves per node :      7521     7521

 maximum number of plane-waves:      7521
 maximum index in each direction: 
   IXMAX=   12   IYMAX=   12   IZMAX=   12
   IXMIN=  -12   IYMIN=  -12   IZMIN=  -12

 WARNING: aliasing errors must be expected set NGX to  50 to avoid them
 WARNING: aliasing errors must be expected set NGY to  50 to avoid them
 WARNING: aliasing errors must be expected set NGZ to  50 to avoid them
 aliasing errors are usually negligible using standard VASP settings
 and one can safely disregard these warnings

 serial   3D FFT for wavefunctions
 parallel 3D FFT for charge:
    minimum data exchange during FFTs selected (reduces bandwidth)


 total amount of memory used by VASP on root node    82178. kBytes
========================================================================

   base      :      30000. kBytes
   nonl-proj :       1564. kBytes
   fftplans  :      17864. kBytes
   grid      :      31769. kBytes
   one-center:         15. kBytes
   wavefun   :        966. kBytes
 
 Broyden mixing: mesh for mixing (old mesh)
   NGX = 25   NGY = 25   NGZ = 25
  (NGX  = 80   NGY  = 80   NGZ  = 80)
  gives a total of  15625 points

 initial charge density was supplied:
 charge density of overlapping atoms calculated
 number of electron       8.0000000 magnetization 
 keeping initial charge density in first step


--------------------------------------------------------------------------------------------------------


 Maximum index for augmentation-charges         1365 (set IRDMAX)


--------------------------------------------------------------------------------------------------------


 First call to EWALD:  gamma=   0.222
 Maximum number of real-space cells 3x 3x 3
 Maximum number of reciprocal cells 3x 3x 3

    FEWALD:  cpu time    0.00: real time    0.00


----------------------------------------- Iteration    1(   1)  ---------------------------------------


    POTLOK:  cpu time    0.80: real time    0.80
    SETDIJ:  cpu time    0.01: real time    0.01
     EDDAV:  cpu time    0.26: real time    0.26
       DOS:  cpu time    0.00: real time    0.00
    --------------------------------------------
      LOOP:  cpu time    1.08: real time    1.08

 eigenvalue-minimisations  :    16
 total energy-change (2. order) : 0.5239330E+02  (-0.1777511E+03)
 number of electron       8.0000000 magnetization 
 augmentation part        8.0000000 magnetization 

 Free energy of the ion-electron system (eV)
  ---------------------------------------------------
  alpha Z        PSCENC =         0.47054448
  Ewald energy   TEWEN  =        98.76290623
  -1/2 Hartree   DENC   =      -215.08095114
  -exchange  EXHF       =         0.00000000
  -V(xc)+E(xc)   XCENC  =        22.64688976
  PAW double counting   =        40.95674594      -42.14325651
  entropy T*S    EENTRO =         0.00000000
  eigenvalues    EBANDS =       -50.16273322
  atomic energy  EATOM  =       196.94315586
  ---------------------------------------------------
  free energy    TOTEN  =        52.39330139 eV

  energy without entropy =       52.39330139  energy(sigma->0) =       52.39330139


--------------------------------------------------------------------------------------------------------




----------------------------------------- Iteration    1(   2)  ---------------------------------------


     EDDAV:  cpu time    0.35: real time    0.35
       DOS:  cpu time    0.00: real time    0.00
    --------------------------------------------
      LOOP:  cpu time    0.35: real time    0.36

 eigenvalue-minimisations  :    24
 total energy-change (2. order) :-0.6531180E+02  (-0.6531180E+02)
 number of electron       8.0000000 magnetization 
 augmentation part        8.0000000 magnetization 

 Free energy of the ion-electron system (eV)
  ---------------------------------------------------
  alpha Z        PSCENC =         0.47054448
  Ewald energy   TEWEN  =        98.76290623
  -1/2 Hartree   DENC   =      -215.08095114
  -exchange  EXHF       =         0.00000000
  -V(xc)+E(xc)   XCENC  =        22.64688976
  PAW double counting   =        40.95674594      -42.14325651
  entropy T*S    EENTRO =         0.00000000
  eigenvalues    EBANDS =      -115.47453017
  atomic energy  EATOM  =       196.94315586
  ---------------------------------------------------
  free energy    TOTEN  =       -12.91849555 eV

  energy without entropy =      -12.91849555  energy(sigma->0) =      -12.91849555


--------------------------------------------------------------------------------------------------------




----------------------------------------- Iteration    1(   3)  ---------------------------------------


     EDDAV:  cpu time    0.26: real time    0.26
       DOS:  cpu time    0.00: real time    0.00
    --------------------------------------------
      LOOP:  cpu time    0.26: real time    0.27

 eigenvalue-minimisations  :    16
 total energy-change (2. order) :-0.1393091E+02  (-0.1393091E+02)
 number of electron       8.0000000 magnetization 
 augmentation part        8.0000000 magnetization 

 Free energy of the ion-electron system (eV)
  ---------------------------------------------------
  alpha Z        PSCENC =         0.47054448
  Ewald energy   TEWEN  =        98.76290623
  -1/2 Hartree   DENC   =      -215.08095114
  -exchange  EXHF       =         0.00000000
  -V(xc)+E(xc)   XCENC  =        22.64688976
  PAW double counting   =        40.95674594      -42.14325651
  entropy T*S    EENTRO =         0.00000000
  eigenvalues    EBANDS =      -129.40543796
  atomic energy  EATOM  =       196.94315586
  ---------------------------------------------------
  free energy    TOTEN  =       -26.84940335 eV

  energy without entropy =      -26.84940335  energy(sigma->0) =      -26.84940335


--------------------------------------------------------------------------------------------------------




----------------------------------------- Iteration    1(   4)  ---------------------------------------


     EDDAV:  cpu time    0.44: real time    0.44
       DOS:  cpu time    0.00: real time    0.00
    --------------------------------------------
      LOOP:  cpu time    0.44: real time    0.45

 eigenvalue-minimisations  :    32
 total energy-change (2. order) :-0.7131371E+00  (-0.7131371E+00)
 number of electron       8.0000000 magnetization 
 augmentation part        8.0000000 magnetization 

 Free energy of the ion-electron system (eV)
  ---------------------------------------------------
  alpha Z        PSCENC =         0.47054448
  Ewald energy   TEWEN  =        98.76290623
  -1/2 Hartree   DENC   =      -215.08095114
  -exchange  EXHF       =         0.00000000
  -V(xc)+E(xc)   XCENC  =        22.64688976
  PAW double counting   =        40.95674594      -42.14325651
  entropy T*S    EENTRO =         0.00000000
  eigenvalues    EBANDS =      -130.11857505
  atomic energy  EATOM  =       196.94315586
  ---------------------------------------------------
  free energy    TOTEN  =       -27.56254044 eV

  energy without entropy =      -27.56254044  energy(sigma->0) =      -27.56254044


--------------------------------------------------------------------------------------------------------




----------------------------------------- Iteration    1(   5)  ---------------------------------------


     EDDAV:  cpu time    0.44: real time    0.44
       DOS:  cpu time    0.00: real time    0.00
    CHARGE:  cpu time    0.09: real time    0.09
    MIXING:  cpu time    0.03: real time    0.03
    --------------------------------------------
      LOOP:  cpu time    0.55: real time    0.93

 eigenvalue-minimisations  :    32
 total energy-change (2. order) :-0.3649330E-03  (-0.3649330E-03)
 number of electron       7.9999982 magnetization 
 augmentation part        0.2222176 magnetization 

 Broyden mixing:
  rms(total) = 0.84912E+00    rms(broyden)= 0.84898E+00
  rms(prec ) = 0.14001E+01
  weight for this iteration     100.00

 Free energy of the ion-electron system (eV)
  ---------------------------------------------------
  alpha Z        PSCENC =         0.47054448
  Ewald energy   TEWEN  =        98.76290623
  -1/2 Hartree   DENC   =      -215.08095114
  -exchange  EXHF       =         0.00000000
  -V(xc)+E(xc)   XCENC  =        22.64688976
  PAW double counting   =        40.95674594      -42.14325651
  entropy T*S    EENTRO =         0.00000000
  eigenvalues    EBANDS =      -130.11893999
  atomic energy  EATOM  =       196.94315586
  ---------------------------------------------------
  free energy    TOTEN  =       -27.56290537 eV

  energy without entropy =      -27.56290537  energy(sigma->0) =      -27.56290537


--------------------------------------------------------------------------------------------------------




----------------------------------------- Iteration    1(   6)  ---------------------------------------


    POTLOK:  cpu time    0.78: real time    0.78
    SETDIJ:  cpu time    0.01: real time    0.01
     EDDAV:  cpu time    0.34: real time    0.34
       DOS:  cpu time    0.00: real time    0.00
    CHARGE:  cpu time    0.09: real time    0.09
    MIXING:  cpu time    0.03: real time    0.03
    --------------------------------------------
      LOOP:  cpu time    1.25: real time    1.27

 eigenvalue-minimisations  :    24
 total energy-change (2. order) : 0.2925866E+01  (-0.8695841E+00)
 number of electron       7.9999982 magnetization 
 augmentation part        0.1957071 magnetization 

 Broyden mixing:
  rms(total) = 0.38102E+00    rms(broyden)= 0.38086E+00
  rms(prec ) = 0.57762E+00
  weight for this iteration     100.00

 eigenvalues of (default mixing * dielectric matrix)
  average eigenvalue GAMMA=   1.2504
  1.2504

 Free energy of the ion-electron system (eV)
  ---------------------------------------------------
  alpha Z        PSCENC =         0.47054448
  Ewald energy   TEWEN  =        98.76290623
  -1/2 Hartree   DENC   =      -234.94299151
  -exchange  EXHF       =         0.00000000
  -V(xc)+E(xc)   XCENC  =        23.87929783
  PAW double counting   =        69.54665472      -70.92897975
  entropy T*S    EENTRO =         0.00000000
  eigenvalues    EBANDS =      -108.36762696
  atomic energy  EATOM  =       196.94315586
  ---------------------------------------------------
  free energy    TOTEN  =       -24.63703911 eV

  energy without entropy =      -24.63703911  energy(sigma->0) =      -24.63703911


--------------------------------------------------------------------------------------------------------




----------------------------------------- Iteration    1(   7)  ---------------------------------------


    POTLOK:  cpu time    0.78: real time    0.78
    SETDIJ:  cpu time    0.01: real time    0.01
     EDDAV:  cpu time    0.44: real time    0.44
       DOS:  cpu time    0.00: real time    0.00
    CHARGE:  cpu time    0.09: real time    0.09
    MIXING:  cpu time    0.03: real time    0.03
    --------------------------------------------
      LOOP:  cpu time    1.34: real time    1.36

 eigenvalue-minimisations  :    32
 total energy-change (2. order) : 0.5079634E+00  (-0.8575274E-01)
 number of electron       7.9999982 magnetization 
 augmentation part        0.1866836 magnetization 

 Broyden mixing:
  rms(total) = 0.19076E+00    rms(broyden)= 0.19069E+00
  rms(prec ) = 0.27716E+00
  weight for this iteration     100.00

 eigenvalues of (default mixing * dielectric matrix)
  average eigenvalue GAMMA=   1.7766
  1.2875  2.2657

 Free energy of the ion-electron system (eV)
  ---------------------------------------------------
  alpha Z        PSCENC =         0.47054448
  Ewald energy   TEWEN  =        98.76290623
  -1/2 Hartree   DENC   =      -245.61478457
  -exchange  EXHF       =         0.00000000
  -V(xc)+E(xc)   XCENC  =        24.68510894
  PAW double counting   =        84.89021836      -86.30290613
  entropy T*S    EENTRO =         0.00000000
  eigenvalues    EBANDS =       -97.96331884
  atomic energy  EATOM  =       196.94315586
  ---------------------------------------------------
  free energy    TOTEN  =       -24.12907568 eV

  energy without entropy =      -24.12907568  energy(sigma->0) =      -24.12907568


--------------------------------------------------------------------------------------------------------




----------------------------------------- Iteration    1(   8)  ---------------------------------------


    POTLOK:  cpu time    0.78: real time    0.78
    SETDIJ:  cpu time    0.01: real time    0.01
     EDDAV:  cpu time    0.25: real time    0.25
       DOS:  cpu time    0.00: real time    0.00
    CHARGE:  cpu time    0.09: real time    0.09
    MIXING:  cpu time    0.03: real time    0.03
    --------------------------------------------
      LOOP:  cpu time    1.16: real time    1.22

 eigenvalue-minimisations  :    16
 total energy-change (2. order) : 0.1596263E+00  (-0.1887169E-01)
 number of electron       7.9999983 magnetization 
 augmentation part        0.1841231 magnetization 

 Broyden mixing:
  rms(total) = 0.26636E-01    rms(broyden)= 0.26603E-01
  rms(prec ) = 0.61456E-01
  weight for this iteration     100.00

 eigenvalues of (default mixing * dielectric matrix)
  average eigenvalue GAMMA=   1.6506
  1.2146  1.8686  1.8686

 Free energy of the ion-electron system (eV)
  ---------------------------------------------------
  alpha Z        PSCENC =         0.47054448
  Ewald energy   TEWEN  =        98.76290623
  -1/2 Hartree   DENC   =      -252.67396113
  -exchange  EXHF       =         0.00000000
  -V(xc)+E(xc)   XCENC  =        25.32292810
  PAW double counting   =        92.74599779      -94.13113801
  entropy T*S    EENTRO =         0.00000000
  eigenvalues    EBANDS =       -91.40988267
  atomic energy  EATOM  =       196.94315586
  ---------------------------------------------------
  free energy    TOTEN  =       -23.96944936 eV

  energy without entropy =      -23.96944936  energy(sigma->0) =      -23.96944936


--------------------------------------------------------------------------------------------------------




----------------------------------------- Iteration    1(   9)  ---------------------------------------


    POTLOK:  cpu time    0.78: real time    0.78
    SETDIJ:  cpu time    0.01: real time    0.01
     EDDAV:  cpu time    0.25: real time    0.25
       DOS:  cpu time    0.00: real time    0.00
    CHARGE:  cpu time    0.09: real time    0.09
    MIXING:  cpu time    0.03: real time    0.03
    --------------------------------------------
      LOOP:  cpu time    1.16: real time    1.18

 eigenvalue-minimisations  :    16
 total energy-change (2. order) : 0.1167417E-02  (-0.7835620E-03)
 number of electron       7.9999983 magnetization 
 augmentation part        0.1834757 magnetization 

 Broyden mixing:
  rms(total) = 0.15295E-01    rms(broyden)= 0.15292E-01
  rms(prec ) = 0.29137E-01
  weight for this iteration     100.00

 eigenvalues of (default mixing * dielectric matrix)
  average eigenvalue GAMMA=   1.9481
  3.1980  2.4238  0.9298  1.2406

 Free energy of the ion-electron system (eV)
  ---------------------------------------------------
  alpha Z        PSCENC =         0.47054448
  Ewald energy   TEWEN  =        98.76290623
  -1/2 Hartree   DENC   =      -254.39098886
  -exchange  EXHF       =         0.00000000
  -V(xc)+E(xc)   XCENC  =        25.37876384
  PAW double counting   =        91.08814447      -92.47154966
  entropy T*S    EENTRO =         0.00000000
  eigenvalues    EBANDS =       -89.74925830
  atomic energy  EATOM  =       196.94315586
  ---------------------------------------------------
  free energy    TOTEN  =       -23.96828194 eV

  energy without entropy =      -23.96828194  energy(sigma->0) =      -23.96828194


--------------------------------------------------------------------------------------------------------




----------------------------------------- Iteration    1(  10)  ---------------------------------------


    POTLOK:  cpu time    0.76: real time    0.77
    SETDIJ:  cpu time    0.01: real time    0.01
     EDDAV:  cpu time    0.25: real time    0.25
       DOS:  cpu time    0.00: real time    0.00
    CHARGE:  cpu time    0.09: real time    0.09
    MIXING:  cpu time    0.03: real time    0.03
    --------------------------------------------
      LOOP:  cpu time    1.15: real time    1.22

 eigenvalue-minimisations  :    16
 total energy-change (2. order) : 0.1721804E-02  (-0.1389032E-03)
 number of electron       7.9999983 magnetization 
 augmentation part        0.1833418 magnetization 

 Broyden mixing:
  rms(total) = 0.70041E-02    rms(broyden)= 0.70028E-02
  rms(prec ) = 0.15013E-01
  weight for this iteration     100.00

 eigenvalues of (default mixing * dielectric matrix)
  average eigenvalue GAMMA=   2.2519
  4.0526  2.4839  2.4839  0.9953  1.2439

 Free energy of the ion-electron system (eV)
  ---------------------------------------------------
  alpha Z        PSCENC =         0.47054448
  Ewald energy   TEWEN  =        98.76290623
  -1/2 Hartree   DENC   =      -255.17511056
  -exchange  EXHF       =         0.00000000
  -V(xc)+E(xc)   XCENC  =        25.42685639
  PAW double counting   =        91.01551757      -92.39519025
  entropy T*S    EENTRO =         0.00000000
  eigenvalues    EBANDS =       -89.01523986
  atomic energy  EATOM  =       196.94315586
  ---------------------------------------------------
  free energy    TOTEN  =       -23.96656013 eV

  energy without entropy =      -23.96656013  energy(sigma->0) =      -23.96656013


--------------------------------------------------------------------------------------------------------




----------------------------------------- Iteration    1(  11)  ---------------------------------------


    POTLOK:  cpu time    0.73: real time    0.73
    SETDIJ:  cpu time    0.01: real time    0.01
     EDDAV:  cpu time    0.25: real time    0.26
       DOS:  cpu time    0.00: real time    0.00
    CHARGE:  cpu time    0.09: real time    0.09
    MIXING:  cpu time    0.03: real time    0.03
    --------------------------------------------
      LOOP:  cpu time    1.11: real time    1.12

 eigenvalue-minimisations  :    16
 total energy-change (2. order) :-0.8047192E-02  (-0.2237117E-03)
 number of electron       7.9999983 magnetization 
 augmentation part        0.1833806 magnetization 

 Broyden mixing:
  rms(total) = 0.73629E-02    rms(broyden)= 0.73615E-02
  rms(prec ) = 0.10392E-01
  weight for this iteration     100.00

 eigenvalues of (default mixing * dielectric matrix)
  average eigenvalue GAMMA=   2.2498
  4.6671  3.2254  2.2924  1.2100  1.0520  1.0520

 Free energy of the ion-electron system (eV)
  ---------------------------------------------------
  alpha Z        PSCENC =         0.47054448
  Ewald energy   TEWEN  =        98.76290623
  -1/2 Hartree   DENC   =      -255.60813129
  -exchange  EXHF       =         0.00000000
  -V(xc)+E(xc)   XCENC  =        25.44455674
  PAW double counting   =        91.27354452      -92.65229048
  entropy T*S    EENTRO =         0.00000000
  eigenvalues    EBANDS =       -88.60889338
  atomic energy  EATOM  =       196.94315586
  ---------------------------------------------------
  free energy    TOTEN  =       -23.97460733 eV

  energy without entropy =      -23.97460733  energy(sigma->0) =      -23.97460733


--------------------------------------------------------------------------------------------------------




----------------------------------------- Iteration    1(  12)  ---------------------------------------


    POTLOK:  cpu time    0.73: real time    0.73
    SETDIJ:  cpu time    0.01: real time    0.01
     EDDAV:  cpu time    0.25: real time    0.26
       DOS:  cpu time    0.00: real time    0.00
    CHARGE:  cpu time    0.09: real time    0.09
    MIXING:  cpu time    0.03: real time    0.03
    --------------------------------------------
      LOOP:  cpu time    1.11: real time    1.31

 eigenvalue-minimisations  :    16
 total energy-change (2. order) :-0.1965896E-02  (-0.6863064E-04)
 number of electron       7.9999983 magnetization 
 augmentation part        0.1833275 magnetization 

 Broyden mixing:
  rms(total) = 0.24499E-02    rms(broyden)= 0.24488E-02
  rms(prec ) = 0.37736E-02
  weight for this iteration     100.00

 eigenvalues of (default mixing * dielectric matrix)
  average eigenvalue GAMMA=   2.6255
  5.7354  3.8689  3.1657  2.3139  1.1783  1.0072  1.1088

 Free energy of the ion-electron system (eV)
  ---------------------------------------------------
  alpha Z        PSCENC =         0.47054448
  Ewald energy   TEWEN  =        98.76290623
  -1/2 Hartree   DENC   =      -255.41998145
  -exchange  EXHF       =         0.00000000
  -V(xc)+E(xc)   XCENC  =        25.42206807
  PAW double counting   =        91.16527455      -92.54625375
  entropy T*S    EENTRO =         0.00000000
  eigenvalues    EBANDS =       -88.77428722
  atomic energy  EATOM  =       196.94315586
  ---------------------------------------------------
  free energy    TOTEN  =       -23.97657322 eV

  energy without entropy =      -23.97657322  energy(sigma->0) =      -23.97657322


--------------------------------------------------------------------------------------------------------




----------------------------------------- Iteration    1(  13)  ---------------------------------------


    POTLOK:  cpu time    0.72: real time    0.72
    SETDIJ:  cpu time    0.01: real time    0.01
     EDDAV:  cpu time    0.25: real time    0.26
       DOS:  cpu time    0.00: real time    0.00
    CHARGE:  cpu time    0.09: real time    0.09
    MIXING:  cpu time    0.03: real time    0.03
    --------------------------------------------
      LOOP:  cpu time    1.11: real time    1.12

 eigenvalue-minimisations  :    16
 total energy-change (2. order) :-0.1267587E-02  (-0.2009751E-04)
 number of electron       7.9999983 magnetization 
 augmentation part        0.1833144 magnetization 

 Broyden mixing:
  rms(total) = 0.62949E-03    rms(broyden)= 0.62931E-03
  rms(prec ) = 0.85944E-03
  weight for this iteration     100.00

 eigenvalues of (default mixing * dielectric matrix)
  average eigenvalue GAMMA=   2.3880
  5.8198  3.9697  2.8751  2.3102  1.1974  1.0464  1.0464  0.8390

 Free energy of the ion-electron system (eV)
  ---------------------------------------------------
  alpha Z        PSCENC =         0.47054448
  Ewald energy   TEWEN  =        98.76290623
  -1/2 Hartree   DENC   =      -255.45343233
  -exchange  EXHF       =         0.00000000
  -V(xc)+E(xc)   XCENC  =        25.42494472
  PAW double counting   =        91.14073228      -92.52047686
  entropy T*S    EENTRO =         0.00000000
  eigenvalues    EBANDS =       -88.74621520
  atomic energy  EATOM  =       196.94315586
  ---------------------------------------------------
  free energy    TOTEN  =       -23.97784081 eV

  energy without entropy =      -23.97784081  energy(sigma->0) =      -23.97784081


--------------------------------------------------------------------------------------------------------




----------------------------------------- Iteration    1(  14)  ---------------------------------------


    POTLOK:  cpu time    0.72: real time    0.72
    SETDIJ:  cpu time    0.01: real time    0.01
     EDDAV:  cpu time    0.25: real time    0.26
       DOS:  cpu time    0.00: real time    0.00
    --------------------------------------------
      LOOP:  cpu time    0.99: real time    1.01

 eigenvalue-minimisations  :    16
 total energy-change (2. order) :-0.3721376E-04  (-0.3759290E-06)
 number of electron       7.9999983 magnetization 
 augmentation part        0.1833144 magnetization 

 Free energy of the ion-electron system (eV)
  ---------------------------------------------------
  alpha Z        PSCENC =         0.47054448
  Ewald energy   TEWEN  =        98.76290623
  -1/2 Hartree   DENC   =      -255.45790961
  -exchange  EXHF       =         0.00000000
  -V(xc)+E(xc)   XCENC  =        25.42506331
  PAW double counting   =        91.16684912      -92.54681669
  entropy T*S    EENTRO =         0.00000000
  eigenvalues    EBANDS =       -88.74167072
  atomic energy  EATOM  =       196.94315586
  ---------------------------------------------------
  free energy    TOTEN  =       -23.97787802 eV

  energy without entropy =      -23.97787802  energy(sigma->0) =      -23.97787802


--------------------------------------------------------------------------------------------------------




 average (electrostatic) potential at core
  the test charge radii are     0.5201  0.6991
  (the norm of the test charge is              1.0000)
       1 -41.3808       2 -41.3808       3 -41.3808       4 -41.3808       5 -57.8626
 
 
 
 E-fermi :  -9.0929     XC(G=0):  -1.2250     alpha+bet : -0.4118


 k-point   1 :       0.0000    0.0000    0.0000
  band No.  band energies     occupation 
      1     -16.8236      2.00000
      2      -9.1824      2.00000
      3      -9.1824      2.00000
      4      -9.1824      2.00000
      5      -0.6113      0.00000
      6       1.7336      0.00000
      7       1.7336      0.00000
      8       1.7337      0.00000


--------------------------------------------------------------------------------------------------------


 soft charge-density along one line, spin component           1
         0         1         2         3         4         5         6         7         8         9
 total charge-density along one line
 
 pseudopotential strength for first ion, spin component:           1
 -2.339  -0.011   0.001   0.001   0.001
 -0.011   0.049   0.001   0.001   0.001
  0.001   0.001  -0.337   0.002   0.002
  0.001   0.001   0.002  -0.337   0.002
  0.001   0.001   0.002   0.002  -0.337
 total augmentation occupancy for first ion, spin component:           1
  1.741  -0.626  -0.167  -0.167  -0.167
 -0.626   0.273   0.067   0.067   0.067
 -0.167   0.067   0.023   0.014   0.014
 -0.167   0.067   0.014   0.023   0.014
 -0.167   0.067   0.014   0.014   0.023


------------------------ aborting loop because EDIFF is reached ----------------------------------------


    CHARGE:  cpu time    0.09: real time    0.09
    FORLOC:  cpu time    0.08: real time    0.08
    FORNL :  cpu time    0.04: real time    0.04
    STRESS:  cpu time    0.20: real time    0.20
    FORHAR:  cpu time    0.25: real time    0.25
    MIXING:  cpu time    0.03: real time    0.03

  FORCE on cell =-STRESS in cart. coord.  units (eV):
  Direction    XX          YY          ZZ          XY          YZ          ZX
  --------------------------------------------------------------------------------------
  Alpha Z     0.47054     0.47054     0.47054
  Ewald      32.92094    32.92094    32.92094     0.00000     0.00000     0.00000
  Hartree    85.15220    85.15220    85.15220     0.00000     0.00000     0.00000
  E(xc)     -27.02732   -27.02732   -27.02732     0.00000     0.00000     0.00000
  Local    -177.65433  -177.65433  -177.65433     0.00000     0.00000     0.00000
  n-local   -16.07119   -16.07119   -16.07119     0.00000     0.00000     0.00000
  augment     0.11248     0.11248     0.11248     0.00000     0.00000     0.00000
  Kinetic   101.54502   101.54502   101.54502     0.00000     0.00000     0.00000
  Fock        0.00000     0.00000     0.00000     0.00000     0.00000     0.00000
  -------------------------------------------------------------------------------------
  Total      -0.55164    -0.55164    -0.55164     0.00000     0.00000     0.00000
  in kB      -1.72623    -1.72623    -1.72623     0.00000     0.00000     0.00000
  external pressure =       -1.73 kB  Pullay stress =        0.00 kB


 VOLUME and BASIS-vectors are now :
 -----------------------------------------------------------------------------
  energy-cutoff  :      350.00
  volume of cell :      512.00
      direct lattice vectors                 reciprocal lattice vectors
     8.000000000  0.000000000  0.000000000     0.125000000  0.000000000  0.000000000
     0.000000000  8.000000000  0.000000000     0.000000000  0.125000000  0.000000000
     0.000000000  0.000000000  8.000000000     0.000000000  0.000000000  0.125000000

  length of vectors
     8.000000000  8.000000000  8.000000000     0.125000000  0.125000000  0.125000000


 FORCES acting on ions
    electron-ion (+dipol)            ewald-force                    non-local-force                 convergence-correction
 -----------------------------------------------------------------------------------------------
   -.305E+02 -.305E+02 -.305E+02   0.339E+02 0.339E+02 0.339E+02   -.321E+01 -.321E+01 -.321E+01   -.108E-03 -.108E-03 -.108E-03
   0.305E+02 0.305E+02 -.305E+02   -.339E+02 -.339E+02 0.339E+02   0.321E+01 0.321E+01 -.321E+01   0.108E-03 0.108E-03 -.108E-03
   -.305E+02 0.305E+02 0.305E+02   0.339E+02 -.339E+02 -.339E+02   -.321E+01 0.321E+01 0.321E+01   -.108E-03 0.108E-03 0.108E-03
   0.305E+02 -.305E+02 0.305E+02   -.339E+02 0.339E+02 -.339E+02   0.321E+01 -.321E+01 0.321E+01   0.108E-03 -.108E-03 0.108E-03
   0.662E-13 0.460E-12 -.445E-12   0.417E-13 0.258E-13 0.132E-13   -.165E-23 0.000E+00 -.207E-23   0.415E-13 0.398E-13 -.184E-14
 -----------------------------------------------------------------------------------------------
   0.805E-07 0.805E-07 0.209E-08   -.957E-15 0.452E-14 -.977E-15   -.444E-15 0.444E-15 -.207E-23   0.643E-13 0.617E-13 -.117E-14
 
 
 POSITION                                       TOTAL-FORCE (eV/Angst)
 -----------------------------------------------------------------------------------
      4.62912      4.62912      4.62912         0.182747      0.182747      0.182747
      3.37088      3.37088      4.62912        -0.182747     -0.182747      0.182747
      4.62912      3.37088      3.37088         0.182747     -0.182747     -0.182747
      3.37088      4.62912      3.37088        -0.182747      0.182747     -0.182747
      4.00000      4.00000      4.00000         0.000000      0.000000      0.000000
 -----------------------------------------------------------------------------------
    total drift:                                0.000000      0.000000      0.000000


--------------------------------------------------------------------------------------------------------



  FREE ENERGIE OF THE ION-ELECTRON SYSTEM (eV)
  ---------------------------------------------------
  free  energy   TOTEN  =       -23.977878 eV

  energy  without entropy=      -23.977878  energy(sigma->0) =      -23.977878
 


--------------------------------------------------------------------------------------------------------


    POTLOK:  cpu time    0.77: real time    0.77


--------------------------------------------------------------------------------------------------------


 Quasi-Newton relaxation of ions (Broydens 2nd method)
  g(Force)  = 0.193E-01   g(Stress)= 0.000E+00

 Reset! Starting new Quasi-Newton update for ions 


--------------------------------------------------------------------------------------------------------


    WAVPRE:  cpu time    0.16: real time    0.16
    FEWALD:  cpu time    0.00: real time    0.00
    ORTHCH:  cpu time    0.01: real time    0.01
     LOOP+:  cpu time   15.66: real time   16.66


----------------------------------------- Iteration    2(   1)  ---------------------------------------


    POTLOK:  cpu time    0.76: real time    0.76
    SETDIJ:  cpu time    0.01: real time    0.01
     EDDAV:  cpu time    0.25: real time    0.25
       DOS:  cpu time    0.00: real time    0.00
    CHARGE:  cpu time    0.09: real time    0.09
    MIXING:  cpu time    0.03: real time    0.03
    --------------------------------------------
      LOOP:  cpu time    1.14: real time    1.14

 eigenvalue-minimisations  :    16
 total energy-change (2. order) :-0.9054991E-02  (-0.4553509E-01)
 number of electron       7.9999967 magnetization 
 augmentation part        0.1782897 magnetization 

 Broyden mixing:
  rms(total) = 0.36741E-01    rms(broyden)= 0.36725E-01
  rms(prec ) = 0.56236E-01
  weight for this iteration     100.00

 Free energy of the ion-electron system (eV)
  ---------------------------------------------------
  alpha Z        PSCENC =         0.47054448
  Ewald energy   TEWEN  =        95.23056124
  -1/2 Hartree   DENC   =      -253.41960292
  -exchange  EXHF       =         0.00000000
  -V(xc)+E(xc)   XCENC  =        25.31962120
  PAW double counting   =        91.15713432      -92.53717671
  entropy T*S    EENTRO =         0.00000000
  eigenvalues    EBANDS =       -87.15113328
  atomic energy  EATOM  =       196.94315586
  ---------------------------------------------------
  free energy    TOTEN  =       -23.98689580 eV

  energy without entropy =      -23.98689580  energy(sigma->0) =      -23.98689580


--------------------------------------------------------------------------------------------------------




----------------------------------------- Iteration    2(   2)  ---------------------------------------


    POTLOK:  cpu time    0.70: real time    0.70
    SETDIJ:  cpu time    0.01: real time    0.01
     EDDAV:  cpu time    0.34: real time    0.34
       DOS:  cpu time    0.00: real time    0.00
    CHARGE:  cpu time    0.09: real time    0.09
    MIXING:  cpu time    0.03: real time    0.03
    --------------------------------------------
      LOOP:  cpu time    1.17: real time    1.23

 eigenvalue-minimisations  :    24
 total energy-change (2. order) : 0.4605596E-02  (-0.1250946E-02)
 number of electron       7.9999967 magnetization 
 augmentation part        0.1786497 magnetization 

 Broyden mixing:
  rms(total) = 0.13964E-01    rms(broyden)= 0.13964E-01
  rms(prec ) = 0.20421E-01
  weight for this iteration     100.00

 eigenvalues of (default mixing * dielectric matrix)
  average eigenvalue GAMMA=   1.5987
  1.5987

 Free energy of the ion-electron system (eV)
  ---------------------------------------------------
  alpha Z        PSCENC =         0.47054448
  Ewald energy   TEWEN  =        95.23056124
  -1/2 Hartree   DENC   =      -252.70812266
  -exchange  EXHF       =         0.00000000
  -V(xc)+E(xc)   XCENC  =        25.27932401
  PAW double counting   =        89.42084954      -90.79195850
  entropy T*S    EENTRO =         0.00000000
  eigenvalues    EBANDS =       -87.82664418
  atomic energy  EATOM  =       196.94315586
  ---------------------------------------------------
  free energy    TOTEN  =       -23.98229020 eV

  energy without entropy =      -23.98229020  energy(sigma->0) =      -23.98229020


--------------------------------------------------------------------------------------------------------




----------------------------------------- Iteration    2(   3)  ---------------------------------------


    POTLOK:  cpu time    0.69: real time    0.69
    SETDIJ:  cpu time    0.01: real time    0.01
     EDDAV:  cpu time    0.34: real time    0.34
       DOS:  cpu time    0.00: real time    0.00
    CHARGE:  cpu time    0.09: real time    0.09
    MIXING:  cpu time    0.03: real time    0.03
    --------------------------------------------
      LOOP:  cpu time    1.17: real time    1.18

 eigenvalue-minimisations  :    24
 total energy-change (2. order) : 0.3773141E-03  (-0.5441094E-03)
 number of electron       7.9999967 magnetization 
 augmentation part        0.1793028 magnetization 

 Broyden mixing:
  rms(total) = 0.52758E-02    rms(broyden)= 0.52664E-02
  rms(prec ) = 0.74562E-02
  weight for this iteration     100.00

 eigenvalues of (default mixing * dielectric matrix)
  average eigenvalue GAMMA=   0.8707
  1.6118  0.1296

 Free energy of the ion-electron system (eV)
  ---------------------------------------------------
  alpha Z        PSCENC =         0.47054448
  Ewald energy   TEWEN  =        95.23056124
  -1/2 Hartree   DENC   =      -252.32902552
  -exchange  EXHF       =         0.00000000
  -V(xc)+E(xc)   XCENC  =        25.25758988
  PAW double counting   =        88.24899303      -89.61434399
  entropy T*S    EENTRO =         0.00000000
  eigenvalues    EBANDS =       -88.18938787
  atomic energy  EATOM  =       196.94315586
  ---------------------------------------------------
  free energy    TOTEN  =       -23.98191289 eV

  energy without entropy =      -23.98191289  energy(sigma->0) =      -23.98191289


--------------------------------------------------------------------------------------------------------




----------------------------------------- Iteration    2(   4)  ---------------------------------------


    POTLOK:  cpu time    0.69: real time    0.69
    SETDIJ:  cpu time    0.01: real time    0.01
     EDDAV:  cpu time    0.25: real time    0.25
       DOS:  cpu time    0.00: real time    0.00
    --------------------------------------------
      LOOP:  cpu time    0.96: real time    1.01

 eigenvalue-minimisations  :    16
 total energy-change (2. order) :-0.1469153E-05  (-0.6402750E-06)
 number of electron       7.9999967 magnetization 
 augmentation part        0.1793028 magnetization 

 Free energy of the ion-electron system (eV)
  ---------------------------------------------------
  alpha Z        PSCENC =         0.47054448
  Ewald energy   TEWEN  =        95.23056124
  -1/2 Hartree   DENC   =      -252.32745865
  -exchange  EXHF       =         0.00000000
  -V(xc)+E(xc)   XCENC  =        25.25753823
  PAW double counting   =        88.24828856      -89.61361461
  entropy T*S    EENTRO =         0.00000000
  eigenvalues    EBANDS =       -88.19092947
  atomic energy  EATOM  =       196.94315586
  ---------------------------------------------------
  free energy    TOTEN  =       -23.98191436 eV

  energy without entropy =      -23.98191436  energy(sigma->0) =      -23.98191436


--------------------------------------------------------------------------------------------------------




 average (electrostatic) potential at core
  the test charge radii are     0.5201  0.6991
  (the norm of the test charge is              1.0000)
       1 -41.2778       2 -41.2778       3 -41.2778       4 -41.2778       5 -57.9835
 
 
 
 E-fermi :  -9.0244     XC(G=0):  -1.1655     alpha+bet : -0.4118


 k-point   1 :       0.0000    0.0000    0.0000
  band No.  band energies     occupation 
      1     -16.7140      2.00000
      2      -9.1272      2.00000
      3      -9.1272      2.00000
      4      -9.1272      2.00000
      5      -0.5890      0.00000
      6       1.7650      0.00000
      7       1.7650      0.00000
      8       1.7650      0.00000


--------------------------------------------------------------------------------------------------------


 soft charge-density along one line, spin component           1
         0         1         2         3         4         5         6         7         8         9
 total charge-density along one line
 
 pseudopotential strength for first ion, spin component:           1
 -2.338  -0.010   0.001   0.001   0.001
 -0.010   0.049   0.001   0.001   0.001
  0.001   0.001  -0.338   0.002   0.002
  0.001   0.001   0.002  -0.338   0.002
  0.001   0.001   0.002   0.002  -0.338
 total augmentation occupancy for first ion, spin component:           1
  1.707  -0.617  -0.160  -0.160  -0.160
 -0.617   0.270   0.065   0.065   0.065
 -0.160   0.065   0.022   0.013   0.013
 -0.160   0.065   0.013   0.022   0.013
 -0.160   0.065   0.013   0.013   0.022


------------------------ aborting loop because EDIFF is reached ----------------------------------------


    CHARGE:  cpu time    0.09: real time    0.09
    FORLOC:  cpu time    0.08: real time    0.08
    FORNL :  cpu time    0.04: real time    0.04
    STRESS:  cpu time    0.20: real time    0.20
    FORHAR:  cpu time    0.25: real time    0.25
    MIXING:  cpu time    0.03: real time    0.03

  FORCE on cell =-STRESS in cart. coord.  units (eV):
  Direction    XX          YY          ZZ          XY          YZ          ZX
  --------------------------------------------------------------------------------------
  Alpha Z     0.47054     0.47054     0.47054
  Ewald      31.74349    31.74349    31.74349     0.00000     0.00000     0.00000
  Hartree    84.17340    84.17340    84.17340     0.00000     0.00000     0.00000
  E(xc)     -26.85096   -26.85096   -26.85096     0.00000     0.00000     0.00000
  Local    -175.67277  -175.67277  -175.67277     0.00000     0.00000     0.00000
  n-local   -15.70346   -15.70346   -15.70346     0.00000     0.00000     0.00000
  augment     0.11954     0.11954     0.11954     0.00000     0.00000     0.00000
  Kinetic   100.53098   100.53098   100.53098     0.00000     0.00000     0.00000
  Fock        0.00000     0.00000     0.00000     0.00000     0.00000     0.00000
  -------------------------------------------------------------------------------------
  Total      -1.18923    -1.18923    -1.18923     0.00000     0.00000     0.00000
  in kB      -3.72140    -3.72140    -3.72140     0.00000     0.00000     0.00000
  external pressure =       -3.72 kB  Pullay stress =        0.00 kB


 VOLUME and BASIS-vectors are now :
 -----------------------------------------------------------------------------
  energy-cutoff  :      350.00
  volume of cell :      512.00
      direct lattice vectors                 reciprocal lattice vectors
     8.000000000  0.000000000  0.000000000     0.125000000  0.000000000  0.000000000
     0.000000000  8.000000000  0.000000000     0.000000000  0.125000000  0.000000000
     0.000000000  0.000000000  8.000000000     0.000000000  0.000000000  0.125000000

  length of vectors
     8.000000000  8.000000000  8.000000000     0.125000000  0.125000000  0.125000000


 FORCES acting on ions
    electron-ion (+dipol)            ewald-force                    non-local-force                 convergence-correction
 -----------------------------------------------------------------------------------------------
   -.300E+02 -.300E+02 -.300E+02   0.329E+02 0.329E+02 0.329E+02   -.309E+01 -.309E+01 -.309E+01   0.140E-01 0.140E-01 0.140E-01
   0.300E+02 0.300E+02 -.300E+02   -.329E+02 -.329E+02 0.329E+02   0.309E+01 0.309E+01 -.309E+01   -.140E-01 -.140E-01 0.140E-01
   -.300E+02 0.300E+02 0.300E+02   0.329E+02 -.329E+02 -.329E+02   -.309E+01 0.309E+01 0.309E+01   0.140E-01 -.140E-01 -.140E-01
   0.300E+02 -.300E+02 0.300E+02   -.329E+02 0.329E+02 -.329E+02   0.309E+01 -.309E+01 0.309E+01   -.140E-01 0.140E-01 -.140E-01
   0.781E-13 0.454E-12 -.441E-12   0.365E-13 0.168E-13 -.133E-13   -.185E-21 0.794E-22 0.397E-22   0.502E-13 0.749E-13 -.101E-12
 -----------------------------------------------------------------------------------------------
   0.893E-07 0.893E-07 0.151E-08   0.945E-15 -.447E-14 -.133E-13   0.444E-15 -.444E-15 -.133E-14   0.783E-13 0.107E-12 -.159E-12
 
 
 POSITION                                       TOTAL-FORCE (eV/Angst)
 -----------------------------------------------------------------------------------
      4.63793      4.63793      4.63793        -0.113768     -0.113768     -0.113768
      3.36207      3.36207      4.63793         0.113768      0.113768     -0.113768
      4.63793      3.36207      3.36207        -0.113768      0.113768      0.113768
      3.36207      4.63793      3.36207         0.113768     -0.113768      0.113768
      4.00000      4.00000      4.00000         0.000000      0.000000      0.000000
 -----------------------------------------------------------------------------------
    total drift:                                0.000000      0.000000      0.000000


--------------------------------------------------------------------------------------------------------



  FREE ENERGIE OF THE ION-ELECTRON SYSTEM (eV)
  ---------------------------------------------------
  free  energy   TOTEN  =       -23.981914 eV

  energy  without entropy=      -23.981914  energy(sigma->0) =      -23.981914
 
 d Force = 0.3648815E-02[-0.120E-01, 0.193E-01]  d Energy = 0.4036336E-02-0.388E-03
 d Force = 0.3532693E+01[ 0.348E+01, 0.358E+01]  d Ewald  = 0.3532345E+01 0.348E-03


--------------------------------------------------------------------------------------------------------


    POTLOK:  cpu time    0.72: real time    0.72


--------------------------------------------------------------------------------------------------------


 Quasi-Newton relaxation of ions (Broydens 2nd method)
  g(Force)  = 0.749E-02   g(Stress)= 0.000E+00

 retain information from N=  1 steps
 eigenvalues of (default step * inverse Hessian matrix)
  average eigenvalue of G=   0.6163
 eigenvalue spectrum of G is  0.6163


--------------------------------------------------------------------------------------------------------


    WAVPRE:  cpu time    0.15: real time    0.16
    FEWALD:  cpu time    0.00: real time    0.00
    ORTHCH:  cpu time    0.01: real time    0.01
     LOOP+:  cpu time    6.03: real time    6.23


----------------------------------------- Iteration    3(   1)  ---------------------------------------


    POTLOK:  cpu time    0.70: real time    0.70
    SETDIJ:  cpu time    0.01: real time    0.01
     EDDAV:  cpu time    0.25: real time    0.25
       DOS:  cpu time    0.00: real time    0.00
    CHARGE:  cpu time    0.09: real time    0.09
    MIXING:  cpu time    0.03: real time    0.03
    --------------------------------------------
      LOOP:  cpu time    1.08: real time    1.08

 eigenvalue-minimisations  :    16
 total energy-change (2. order) :-0.2773391E-02  (-0.6095920E-02)
 number of electron       7.9999972 magnetization 
 augmentation part        0.1811406 magnetization 

 Broyden mixing:
  rms(total) = 0.13733E-01    rms(broyden)= 0.13728E-01
  rms(prec ) = 0.21559E-01
  weight for this iteration     100.00

 Free energy of the ion-electron system (eV)
  ---------------------------------------------------
  alpha Z        PSCENC =         0.47054448
  Ewald energy   TEWEN  =        96.57396736
  -1/2 Hartree   DENC   =      -253.18773503
  -exchange  EXHF       =         0.00000000
  -V(xc)+E(xc)   XCENC  =        25.30129560
  PAW double counting   =        88.21756542      -89.58309292
  entropy T*S    EENTRO =         0.00000000
  eigenvalues    EBANDS =       -88.72038705
  atomic energy  EATOM  =       196.94315586
  ---------------------------------------------------
  free energy    TOTEN  =       -23.98468628 eV

  energy without entropy =      -23.98468628  energy(sigma->0) =      -23.98468628


--------------------------------------------------------------------------------------------------------




----------------------------------------- Iteration    3(   2)  ---------------------------------------


    POTLOK:  cpu time    0.73: real time    0.73
    SETDIJ:  cpu time    0.01: real time    0.01
     EDDAV:  cpu time    0.34: real time    0.34
       DOS:  cpu time    0.00: real time    0.00
    CHARGE:  cpu time    0.09: real time    0.09
    MIXING:  cpu time    0.03: real time    0.03
    --------------------------------------------
      LOOP:  cpu time    1.20: real time    1.21

 eigenvalue-minimisations  :    24
 total energy-change (2. order) : 0.6737799E-03  (-0.2045972E-03)
 number of electron       7.9999972 magnetization 
 augmentation part        0.1809260 magnetization 

 Broyden mixing:
  rms(total) = 0.45825E-02    rms(broyden)= 0.45821E-02
  rms(prec ) = 0.68387E-02
  weight for this iteration     100.00

 eigenvalues of (default mixing * dielectric matrix)
  average eigenvalue GAMMA=   1.4905
  1.4905

 Free energy of the ion-electron system (eV)
  ---------------------------------------------------
  alpha Z        PSCENC =         0.47054448
  Ewald energy   TEWEN  =        96.57396736
  -1/2 Hartree   DENC   =      -253.45706884
  -exchange  EXHF       =         0.00000000
  -V(xc)+E(xc)   XCENC  =        25.31591381
  PAW double counting   =        88.77974983      -90.14913154
  entropy T*S    EENTRO =         0.00000000
  eigenvalues    EBANDS =       -88.46114345
  atomic energy  EATOM  =       196.94315586
  ---------------------------------------------------
  free energy    TOTEN  =       -23.98401250 eV

  energy without entropy =      -23.98401250  energy(sigma->0) =      -23.98401250


--------------------------------------------------------------------------------------------------------




----------------------------------------- Iteration    3(   3)  ---------------------------------------


    POTLOK:  cpu time    0.74: real time    0.74
    SETDIJ:  cpu time    0.01: real time    0.01
     EDDAV:  cpu time    0.34: real time    0.34
       DOS:  cpu time    0.00: real time    0.00
    --------------------------------------------
      LOOP:  cpu time    1.09: real time    1.24

 eigenvalue-minimisations  :    24
 total energy-change (2. order) : 0.3754198E-04  (-0.6020855E-04)
 number of electron       7.9999972 magnetization 
 augmentation part        0.1809260 magnetization 

 Free energy of the ion-electron system (eV)
  ---------------------------------------------------
  alpha Z        PSCENC =         0.47054448
  Ewald energy   TEWEN  =        96.57396736
  -1/2 Hartree   DENC   =      -253.56966364
  -exchange  EXHF       =         0.00000000
  -V(xc)+E(xc)   XCENC  =        25.32197866
  PAW double counting   =        89.09362009      -90.46514364
  entropy T*S    EENTRO =         0.00000000
  eigenvalues    EBANDS =       -88.35243412
  atomic energy  EATOM  =       196.94315586
  ---------------------------------------------------
  free energy    TOTEN  =       -23.98397496 eV

  energy without entropy =      -23.98397496  energy(sigma->0) =      -23.98397496


--------------------------------------------------------------------------------------------------------




 average (electrostatic) potential at core
  the test charge radii are     0.5201  0.6991
  (the norm of the test charge is              1.0000)
       1 -41.3206       2 -41.3206       3 -41.3206       4 -41.3206       5 -57.9083
 
 
 
 E-fermi :  -9.0574     XC(G=0):  -1.2404     alpha+bet : -0.4118


 k-point   1 :       0.0000    0.0000    0.0000
  band No.  band energies     occupation 
      1     -16.7479      2.00000
      2      -9.1428      2.00000
      3      -9.1428      2.00000
      4      -9.1428      2.00000
      5      -0.6430      0.00000
      6       1.7130      0.00000
      7       1.7130      0.00000
      8       1.7130      0.00000


--------------------------------------------------------------------------------------------------------


 soft charge-density along one line, spin component           1
         0         1         2         3         4         5         6         7         8         9
 total charge-density along one line
 
 pseudopotential strength for first ion, spin component:           1
 -2.339  -0.010   0.001   0.001   0.001
 -0.010   0.049   0.001   0.001   0.001
  0.001   0.001  -0.338   0.002   0.002
  0.001   0.001   0.002  -0.338   0.002
  0.001   0.001   0.002   0.002  -0.338
 total augmentation occupancy for first ion, spin component:           1
  1.720  -0.621  -0.163  -0.163  -0.163
 -0.621   0.271   0.066   0.066   0.066
 -0.163   0.066   0.022   0.013   0.013
 -0.163   0.066   0.013   0.022   0.013
 -0.163   0.066   0.013   0.013   0.022


------------------------ aborting loop because EDIFF is reached ----------------------------------------


    CHARGE:  cpu time    0.09: real time    0.09
    FORLOC:  cpu time    0.08: real time    0.08
    FORNL :  cpu time    0.04: real time    0.04
    STRESS:  cpu time    0.20: real time    0.20
    FORHAR:  cpu time    0.25: real time    0.25
    MIXING:  cpu time    0.03: real time    0.03

  FORCE on cell =-STRESS in cart. coord.  units (eV):
  Direction    XX          YY          ZZ          XY          YZ          ZX
  --------------------------------------------------------------------------------------
  Alpha Z     0.47054     0.47054     0.47054
  Ewald      32.19130    32.19130    32.19130     0.00000     0.00000     0.00000
  Hartree    84.50156    84.50156    84.50156     0.00000     0.00000     0.00000
  E(xc)     -26.91748   -26.91748   -26.91748     0.00000     0.00000     0.00000
  Local    -176.39124  -176.39124  -176.39124     0.00000     0.00000     0.00000
  n-local   -15.83705   -15.83705   -15.83705     0.00000     0.00000     0.00000
  augment     0.11753     0.11753     0.11753     0.00000     0.00000     0.00000
  Kinetic   100.86454   100.86454   100.86454     0.00000     0.00000     0.00000
  Fock        0.00000     0.00000     0.00000     0.00000     0.00000     0.00000
  -------------------------------------------------------------------------------------
  Total      -1.00030    -1.00030    -1.00030     0.00000     0.00000     0.00000
  in kB      -3.13019    -3.13019    -3.13019     0.00000     0.00000     0.00000
  external pressure =       -3.13 kB  Pullay stress =        0.00 kB


 VOLUME and BASIS-vectors are now :
 -----------------------------------------------------------------------------
  energy-cutoff  :      350.00
  volume of cell :      512.00
      direct lattice vectors                 reciprocal lattice vectors
     8.000000000  0.000000000  0.000000000     0.125000000  0.000000000  0.000000000
     0.000000000  8.000000000  0.000000000     0.000000000  0.125000000  0.000000000
     0.000000000  0.000000000  8.000000000     0.000000000  0.000000000  0.125000000

  length of vectors
     8.000000000  8.000000000  8.000000000     0.125000000  0.125000000  0.125000000


 FORCES acting on ions
    electron-ion (+dipol)            ewald-force                    non-local-force                 convergence-correction
 -----------------------------------------------------------------------------------------------
   -.301E+02 -.301E+02 -.301E+02   0.333E+02 0.333E+02 0.333E+02   -.313E+01 -.313E+01 -.313E+01   -.413E-02 -.413E-02 -.413E-02
   0.301E+02 0.301E+02 -.301E+02   -.333E+02 -.333E+02 0.333E+02   0.313E+01 0.313E+01 -.313E+01   0.413E-02 0.413E-02 -.413E-02
   -.301E+02 0.301E+02 0.301E+02   0.333E+02 -.333E+02 -.333E+02   -.313E+01 0.313E+01 0.313E+01   -.413E-02 0.413E-02 0.413E-02
   0.301E+02 -.301E+02 0.301E+02   -.333E+02 0.333E+02 -.333E+02   0.313E+01 -.313E+01 0.313E+01   0.413E-02 -.413E-02 0.413E-02
   0.616E-13 0.456E-12 -.443E-12   0.239E-13 0.152E-13 0.168E-13   0.000E+00 -.827E-24 -.827E-24   0.585E-13 -.133E-12 -.731E-13
 -----------------------------------------------------------------------------------------------
   0.886E-07 0.886E-07 0.179E-08   -.455E-14 0.956E-15 0.965E-14   -.444E-15 0.444E-15 0.888E-15   0.968E-13 -.200E-12 -.121E-12
 
 
 POSITION                                       TOTAL-FORCE (eV/Angst)
 -----------------------------------------------------------------------------------
      4.63455      4.63455      4.63455         0.006950      0.006950      0.006950
      3.36545      3.36545      4.63455        -0.006950     -0.006950      0.006950
      4.63455      3.36545      3.36545         0.006950     -0.006950     -0.006950
      3.36545      4.63455      3.36545        -0.006950      0.006950     -0.006950
      4.00000      4.00000      4.00000         0.000000      0.000000      0.000000
 -----------------------------------------------------------------------------------
    total drift:                                0.000000      0.000000      0.000000


--------------------------------------------------------------------------------------------------------



  FREE ENERGIE OF THE ION-ELECTRON SYSTEM (eV)
  ---------------------------------------------------
  free  energy   TOTEN  =       -23.983975 eV

  energy  without entropy=      -23.983975  energy(sigma->0) =      -23.983975
 
 d Force = 0.2167961E-02[-0.282E-03, 0.462E-02]  d Energy = 0.2060599E-02 0.107E-03
 d Force =-0.1343425E+01[-0.135E+01,-0.134E+01]  d Ewald  =-0.1343406E+01-0.193E-04


--------------------------------------------------------------------------------------------------------


    POTLOK:  cpu time    0.75: real time    0.75


--------------------------------------------------------------------------------------------------------


 Quasi-Newton relaxation of ions (Broydens 2nd method)
  g(Force)  = 0.280E-04   g(Stress)= 0.000E+00

 retain information from N=  1 steps
 eigenvalues of (default step * inverse Hessian matrix)
  average eigenvalue of G=   0.5808
 eigenvalue spectrum of G is  0.5808


--------------------------------------------------------------------------------------------------------


  
 reached required accuracy - stopping structural energy minimisation
 writing wavefunctions
     LOOP+:  cpu time    4.83: real time    5.30
    4ORBIT:  cpu time    0.00: real time    0.00

 total amount of memory used by VASP on root node    82178. kBytes
========================================================================

   base      :      30000. kBytes
   nonl-proj :       1564. kBytes
   fftplans  :      17864. kBytes
   grid      :      31769. kBytes
   one-center:         15. kBytes
   wavefun   :        966. kBytes
 
  
  
 General timing and accounting informations for this job:
 ========================================================
  
                  Total CPU time used (sec):       28.219
                            User time (sec):       27.784
                          System time (sec):        0.435
                         Elapsed time (sec):       30.313
  
                   Maximum memory used (kb):           0.
                   Average memory used (kb):           0.
  
                          Minor page faults:       128029
                          Major page faults:            0
                 Voluntary context switches:          845
