    4    4   50    1
  0.1280000E+03  0.8000000E-09  0.8000000E-09  0.8000000E-09  0.5000000E-15
  1.000000000000000E-004
  CAR 
 unknown system                          
    8    1    8
 
  0.0000000E+00  0.0000000E+00  0.0000000E+00  0.1000000E+01
   1      -20.934088
   2      -10.961503
   3      -10.960179
   4       -5.986308
   5       -0.946002
   6        1.370014
   7        1.444353
   8        1.462133
