       N       E                     dE             d eps       ncg     rms          rms(c)
DAV:   1     0.195609981451E+02    0.19561E+02   -0.22803E+03    24   0.396E+02
DAV:   2    -0.205341566551E+02   -0.40095E+02   -0.40095E+02    24   0.134E+02
DAV:   3    -0.224299665202E+02   -0.18958E+01   -0.18958E+01    16   0.309E+01
DAV:   4    -0.224474609170E+02   -0.17494E-01   -0.17494E-01    32   0.337E+00
DAV:   5    -0.224474622811E+02   -0.13641E-05   -0.13641E-05    24   0.309E-02    0.857E+00
DAV:   6    -0.197471492514E+02    0.27003E+01   -0.11426E+01    16   0.213E+01    0.335E+00
DAV:   7    -0.195328455559E+02    0.21430E+00   -0.29647E-01    24   0.343E+00    0.208E+00
DAV:   8    -0.194060709633E+02    0.12677E+00   -0.13962E-01    32   0.295E+00    0.282E-01
DAV:   9    -0.194092188084E+02   -0.31478E-02   -0.64120E-03    16   0.506E-01    0.156E-01
DAV:  10    -0.194146951873E+02   -0.54764E-02   -0.44827E-03    16   0.484E-01    0.749E-02
DAV:  11    -0.194203249544E+02   -0.56298E-02   -0.18107E-03    32   0.209E-01    0.369E-02
DAV:  12    -0.194245941707E+02   -0.42692E-02   -0.12791E-03    24   0.197E-01    0.186E-02
DAV:  13    -0.194255860983E+02   -0.99193E-03   -0.17618E-04    32   0.671E-02    0.148E-02
DAV:  14    -0.194260486120E+02   -0.46251E-03   -0.59028E-05    24   0.442E-02    0.424E-03
DAV:  15    -0.194261659477E+02   -0.11734E-03   -0.20743E-05    32   0.246E-02    0.149E-03
DAV:  16    -0.194261713868E+02   -0.54392E-05   -0.55096E-07    16   0.514E-03
   1 F= -.19426171E+02 E0= -.19426171E+02  d E =-.194262E+02
       N       E                     dE             d eps       ncg     rms          rms(c)
DAV:   1    -0.194279646355E+02   -0.17987E-02   -0.30315E+00    16   0.166E+01    0.726E-01
DAV:   2    -0.194166602429E+02    0.11304E-01   -0.87884E-02    24   0.198E+00    0.244E-01
DAV:   3    -0.194158446209E+02    0.81562E-03   -0.31933E-03    24   0.447E-01    0.112E-01
DAV:   4    -0.194158206615E+02    0.23959E-04   -0.69932E-04    32   0.229E-01
   2 F= -.19415821E+02 E0= -.19415821E+02  d E =0.103507E-01
       N       E                     dE             d eps       ncg     rms          rms(c)
DAV:   1    -0.194372120193E+02   -0.21367E-01   -0.11467E+00    16   0.101E+01    0.438E-01
DAV:   2    -0.194329246838E+02    0.42873E-02   -0.29486E-02    24   0.113E+00    0.144E-01
DAV:   3    -0.194326262355E+02    0.29845E-03   -0.12627E-03    16   0.282E-01    0.641E-02
DAV:   4    -0.194326421315E+02   -0.15896E-04   -0.22576E-04    24   0.132E-01
   3 F= -.19432642E+02 E0= -.19432642E+02  d E =-.168215E-01
