 vasp.5.2.12 11Nov11 complex                                                    
  
 executed on             LinuxIFC date 2012.10.31  15:55:35
 running on    1 nodes
 distr:  one band on    1 nodes,    1 groups


--------------------------------------------------------------------------------------------------------


 INCAR:
 POTCAR:   PAW_PBE H 15Jun2001                    
 POTCAR:   PAW_PBE N 08Apr2002                    
 POTCAR:   PAW_PBE H 15Jun2001                    
   VRHFIN =H: ultrasoft test                                                    
   LEXCH  = PE                                                                  
   EATOM  =    12.4884 eV,     .9179 Ry                                         
                                                                                
   TITEL  = PAW_PBE H 15Jun2001                                                 
   LULTRA =        F    use ultrasoft PP ?                                      
   IUNSCR =        0    unscreen: 0-lin 1-nonlin 2-no                           
   RPACOR =     .000    partial core radius                                     
   POMASS =    1.000; ZVAL   =    1.000    mass and valenz                      
   RCORE  =    1.100    outmost cutoff radius                                   
   RWIGS  =     .700; RWIGS  =     .370    wigner-seitz radius (au A)           
   ENMAX  =  250.000; ENMIN  =  200.000 eV                                      
   RCLOC  =     .701    cutoff for local pot                                    
   LCOR   =        T    correct aug charges                                     
   LPAW   =        T    paw PP                                                  
   EAUG   =  400.000                                                            
   RMAX   =    2.174    core radius for proj-oper                               
   RAUG   =    1.200    factor for augmentation sphere                          
   RDEP   =    1.112    radius for radial grids                                 
   QCUT   =   -5.749; QGAM   =   11.498    optimization parameters              
                                                                                
   Description                                                                  
     l     E      TYP  RCUT    TYP  RCUT                                        
     0   .000     23  1.100                                                     
     0   .500     23  1.100                                                     
     1  -.300     23  1.100                                                     
  local pseudopotential read in
  atomic valenz-charges read in
  non local Contribution for L=           0  read in
    real space projection operators read in
  non local Contribution for L=           0  read in
    real space projection operators read in
  non local Contribution for L=           1  read in
    real space projection operators read in
    PAW grid and wavefunctions read in
 
   number of l-projection  operators is LMAX  =           3
   number of lm-projection operators is LMMAX =           5
 
 POTCAR:   PAW_PBE N 08Apr2002                    
   VRHFIN =N: s2p3                                                              
   LEXCH  = PE                                                                  
   EATOM  =   264.5486 eV,   19.4438 Ry                                         
                                                                                
   TITEL  = PAW_PBE N 08Apr2002                                                 
   LULTRA =        F    use ultrasoft PP ?                                      
   IUNSCR =        0    unscreen: 0-lin 1-nonlin 2-no                           
   RPACOR =     .000    partial core radius                                     
   POMASS =   14.001; ZVAL   =    5.000    mass and valenz                      
   RCORE  =    1.500    outmost cutoff radius                                   
   RWIGS  =    1.400; RWIGS  =     .741    wigner-seitz radius (au A)           
   ENMAX  =  400.000; ENMIN  =  300.000 eV                                      
   ICORE  =        2    local potential                                         
   LCOR   =        T    correct aug charges                                     
   LPAW   =        T    paw PP                                                  
   EAUG   =  627.112                                                            
   DEXC   =     .000                                                            
   RMAX   =    2.247    core radius for proj-oper                               
   RAUG   =    1.300    factor for augmentation sphere                          
   RDEP   =    1.514    radius for radial grids                                 
   QCUT   =   -5.562; QGAM   =   11.124    optimization parameters              
                                                                                
   Description                                                                  
     l     E      TYP  RCUT    TYP  RCUT                                        
     0   .000     23  1.200                                                     
     0   .000     23  1.200                                                     
     1   .000     23  1.500                                                     
     1   .700     23  1.500                                                     
     2   .000      7  1.500                                                     
  local pseudopotential read in
  atomic valenz-charges read in
  non local Contribution for L=           0  read in
    real space projection operators read in
  non local Contribution for L=           0  read in
    real space projection operators read in
  non local Contribution for L=           1  read in
    real space projection operators read in
  non local Contribution for L=           1  read in
    real space projection operators read in
    PAW grid and wavefunctions read in
 
   number of l-projection  operators is LMAX  =           4
   number of lm-projection operators is LMMAX =           8
 
 PAW_PBE H 15Jun2001                    :
 energy of atom  1       EATOM=  -12.4884
 kinetic energy error for atom=    0.0203 (will be added to EATOM!!)
 PAW_PBE N 08Apr2002                    :
 energy of atom  2       EATOM= -264.5486
 kinetic energy error for atom=    0.2274 (will be added to EATOM!!)
 
 
 POSCAR:  H  N                                   
  positions in cartesian coordinates
  No initial velocities read in
 exchange correlation table for  LEXCH =        8
   RHO(1)=    0.500       N(1)  =     2000
   RHO(2)=  100.500       N(2)  =     4000
 


--------------------------------------------------------------------------------------------------------


 ion  position               nearest neighbor table
   1  0.500  0.588  0.476-   4 1.02
   2  0.602  0.412  0.476-   4 1.02
   3  0.398  0.412  0.476-   4 1.02
   4  0.500  0.471  0.524-   2 1.02   3 1.02   1 1.02
 
  LATTYP: Found a simple cubic cell.
 ALAT       =     8.0000000000
  
  Lattice vectors:
  
 A1 = (   8.0000000000,   0.0000000000,   0.0000000000)
 A2 = (   0.0000000000,   8.0000000000,   0.0000000000)
 A3 = (   0.0000000000,   0.0000000000,   8.0000000000)
 Subroutine PRICEL returns:
 Original cell was already a primitive cell.
 

Analysis of symmetry for initial positions (statically):

 Routine SETGRP: Setting up the symmetry group for a 
 simple cubic supercell.


 Subroutine GETGRP returns: Found  2 space group operations
 (whereof  2 operations were pure point group operations)
 out of a pool of 48 trial point group operations.


The static configuration has the point symmetry C_1h.

Analysis of symmetry for dynamics (positions and initial velocities):

 Subroutine DYNSYM returns: Found  2 space group operations
 (whereof  2 operations were pure point group operations)
 out of a pool of  2 trial space group operations
 (whereof  2 operations were pure point group operations)
 and found also     1 'primitive' translations


The dynamic configuration has the point symmetry C_1h.
 
 
 KPOINTS: KPOINTS created by Atomic Simulation Env

Automatic generation of k-mesh.
 
 Subroutine IBZKPT returns following result:
 ===========================================
 
 Found      1 irreducible k-points:
 
 Following reciprocal coordinates:
            Coordinates               Weight
  0.000000  0.000000  0.000000      1.000000
 
 Following cartesian coordinates:
            Coordinates               Weight
  0.000000  0.000000  0.000000      1.000000
 


--------------------------------------------------------------------------------------------------------




 Dimension of arrays:
   k-points           NKPTS =      1   k-points in BZ     NKDIM =      1   number of bands    NBANDS=      8
   number of dos      NEDOS =    301   number of ions     NIONS =      4
   non local maximal  LDIM  =      4   non local SUM 2l+1 LMDIM =      8
   total plane-waves  NPLWV =  64000
   max r-space proj   IRMAX =      1   max aug-charges    IRDMAX=   1738
   dimension x,y,z NGX =    40 NGY =   40 NGZ =   40
   dimension x,y,z NGXF=    80 NGYF=   80 NGZF=   80
   support grid    NGXF=    80 NGYF=   80 NGZF=   80
   ions per type =               3   1
 NGX,Y,Z   is equivalent  to a cutoff of   8.31,  8.31,  8.31 a.u.
 NGXF,Y,Z  is equivalent  to a cutoff of  16.62, 16.62, 16.62 a.u.


 I would recommend the setting:
   dimension x,y,z NGX =    37 NGY =   37 NGZ =   37
 SYSTEM =  unknown system                          
 POSCAR =   H  N                                   

 Startparameter for this run:
   NWRITE =      2    write-flag & timer
   PREC   = normal    normal or accurate (medium, high low for compatibility)
   ISTART =      0    job   : 0-new  1-cont  2-samecut
   ICHARG =      2    charge: 1-file 2-atom 10-const
   ISPIN  =      1    spin polarized calculation?
   LNONCOLLINEAR =      F non collinear calculations
   LSORBIT =      F    spin-orbit coupling
   INIWAV =      1    electr: 0-lowe 1-rand  2-diag
   LASPH  =      F    aspherical Exc in radial PAW
   METAGGA=      F    non-selfconsistent MetaGGA calc.

 Electronic Relaxation 1
   ENCUT  =  350.0 eV  25.72 Ry    5.07 a.u.  12.20 12.20 12.20*2*pi/ulx,y,z
   ENINI  =  350.0     initial cutoff
   ENAUG  =  627.1 eV  augmentation charge cutoff
   NELM   =     60;   NELMIN=  2; NELMDL= -5     # of ELM steps 
   EDIFF  = 0.1E-03   stopping-criterion for ELM
   LREAL  =      F    real-space projection
   NLSPLINE    = F    spline interpolate recip. space projectors
   LCOMPAT=      F    compatible to vasp.4.4
   GGA_COMPAT  = T    GGA compatible to vasp.4.4-vasp.4.6
   LMAXPAW     = -100 max onsite density
   LMAXMIX     =    2 max onsite mixed and CHGCAR
   VOSKOWN=      0    Vosko Wilk Nusair interpolation
   ROPT   =    0.00000   0.00000
 Ionic relaxation
   EDIFFG = -.5E-01   stopping-criterion for IOM
   NSW    =     50    number of steps for IOM
   NBLOCK =      1;   KBLOCK =     50    inner block; outer block 
   IBRION =      1    ionic relax: 0-MD 1-quasi-New 2-CG
   NFREE  =      0    steps in history (QN), initial steepest desc. (CG)
   ISIF   =      2    stress and relaxation
   IWAVPR =     11    prediction:  0-non 1-charg 2-wave 3-comb
   ISYM   =      2    0-nonsym 1-usesym 2-fastsym
   LCORR  =      T    Harris-Foulkes like correction to forces

   POTIM  = 0.5000    time-step for ionic-motion
   TEIN   =    0.0    initial temperature
   TEBEG  =    0.0;   TEEND  =   0.0 temperature during run
   SMASS  =  -3.00    Nose mass-parameter (am)
   estimated Nose-frequenzy (Omega)   =  0.10E-29 period in steps =****** mass=  -0.146E-26a.u.
   SCALEE = 1.0000    scale energy and forces
   NPACO  =    256;   APACO  = 16.0  distance and # of slots for P.C.
   PSTRESS=    0.0 pullay stress

  Mass of Ions in am
   POMASS =   1.00 14.00
  Ionic Valenz
   ZVAL   =   1.00  5.00
  Atomic Wigner-Seitz radii
   RWIGS  =  -1.00 -1.00
  virtual crystal weights 
   VCA    =   1.00  1.00
   NELECT =       8.0000    total number of electrons
   NUPDOWN=      -1.0000    fix difference up-down

 DOS related values:
   EMIN   =  10.00;   EMAX   =-10.00  energy-range for DOS
   EFERMI =   0.00
   ISMEAR =     0;   SIGMA  =   0.01  broadening in eV -4-tet -1-fermi 0-gaus

 Electronic relaxation 2 (details)
   IALGO  =     38    algorithm
   LDIAG  =      T    sub-space diagonalisation (order eigenvalues)
   LSUBROT=      T    optimize rotation matrix (better conditioning)
   TURBO    =      0    0=normal 1=particle mesh
   IRESTART =      0    0=no restart 2=restart with 2 vectors
   NREBOOT  =      0    no. of reboots
   NMIN     =      0    reboot dimension
   EREF     =   0.00    reference energy to select bands
   IMIX   =      4    mixing-type and parameters
     AMIX     =   0.40;   BMIX     =  1.00
     AMIX_MAG =   1.60;   BMIX_MAG =  1.00
     AMIN     =   0.10
     WC   =   100.;   INIMIX=   1;  MIXPRE=   1

 Intra band minimization:
   WEIMIN = 0.0010     energy-eigenvalue tresh-hold
   EBREAK =  0.31E-05  absolut break condition
   DEPER  =   0.30     relativ break condition  

   TIME   =   0.40     timestep for ELM

  volume/ion in A,a.u.               =     128.00       863.79
  Fermi-wavevector in a.u.,A,eV,Ry     =   0.409275  0.773417  2.279054  0.167506
  Thomas-Fermi vector in A             =   1.364147
 
 Write flags
   LWAVE  =      T    write WAVECAR
   LCHARG =      T    write CHGCAR
   LVTOT  =      F    write LOCPOT, total local potential
   LVHAR  =      F    write LOCPOT, Hartree potential only
   LELF   =      F    write electronic localiz. function (ELF)
   LORBIT =      0    0 simple, 1 ext, 2 COOP (PROOUT)


 Dipole corrections
   LMONO  =      F    monopole corrections only (constant potential shift)
   LDIPOL =      F    correct potential (dipole corrections)
   IDIPOL =      0    1-x, 2-y, 3-z, 4-all directions 
   EPSILON=  1.0000000 bulk dielectric constant

 Exchange correlation treatment:
   GGA     =    --    GGA type
   LEXCH   =     8    internal setting for exchange type
   VOSKOWN=      0    Vosko Wilk Nusair interpolation
   LHFCALC =     F    Hartree Fock is set to
   LHFONE  =     F    Hartree Fock one center treatment
   AEXX    =    0.0000 exact exchange contribution

 Linear response parameters
   LEPSILON=     F    determine dielectric tensor
   LRPA    =     F    only Hartree local field effects (RPA)
   LNABLA  =     F    use nabla operator in PAW spheres
   LVEL    =     F    velocity operator in full k-point grid
   LINTERFAST=   F  fast interpolation
   KINTER  =     0    interpolate to denser k-point grid
   CSHIFT  =0.1000    complex shift for real part using Kramers Kronig
   OMEGAMAX=  -1.0    maximum frequency
   RTIME   =    0.100 relaxation time in fs

 Orbital magnetization related:
   ORBITALMAG=     F  switch on orbital magnetization
   LCHIMAG   =     F  perturbation theory with respect to B field
   DQ        =  0.001000  dq finite difference perturbation B field



--------------------------------------------------------------------------------------------------------


 quasi-Newton-method for relaxation of ions
 charge density and potential will be updated during run
 non-spin polarized calculation
 Variant of blocked Davidson
 Davidson routine will perform the subspace rotation
 perform sub-space diagonalisation
    after iterative eigenvector-optimisation
 modified Broyden-mixing scheme, WC =      100.0
 initial mixing is a Kerker type mixing with AMIX =  0.4000 and BMIX =      1.0000
 Hartree-type preconditioning will be used
 using additional bands            4
 reciprocal scheme for non local part
 calculate Harris-corrections to forces 
   (improved forces if not selfconsistent)
 use gradient corrections 
 use of overlap-Matrix (Vanderbilt PP)
 Gauss-broadening in eV      SIGMA  =   0.01


--------------------------------------------------------------------------------------------------------


  energy-cutoff  :      350.00
  volume of cell :      512.00
      direct lattice vectors                 reciprocal lattice vectors
     8.000000000  0.000000000  0.000000000     0.125000000  0.000000000  0.000000000
     0.000000000  8.000000000  0.000000000     0.000000000  0.125000000  0.000000000
     0.000000000  0.000000000  8.000000000     0.000000000  0.000000000  0.125000000

  length of vectors
     8.000000000  8.000000000  8.000000000     0.125000000  0.125000000  0.125000000


 
 k-points in units of 2pi/SCALE and weight: KPOINTS created by Atomic Simulation Env
   0.00000000  0.00000000  0.00000000       1.000
 
 k-points in reciprocal lattice and weights: KPOINTS created by Atomic Simulation Env
   0.00000000  0.00000000  0.00000000       1.000
 
 position of ions in fractional coordinates (direct lattice) 
   0.50000000  0.58809975  0.47573144
   0.60172887  0.41190025  0.47573144
   0.39827113  0.41190025  0.47573144
   0.50000000  0.47063337  0.52426856
 
 position of ions in cartesian coordinates  (Angst):
   4.00000000  4.70479800  3.80585150
   4.81383100  3.29520200  3.80585150
   3.18616900  3.29520200  3.80585150
   4.00000000  3.76506700  4.19414850
 


--------------------------------------------------------------------------------------------------------


 k-point  1 :  0.00000.00000.0000  plane waves:    7521

 maximum and minimum number of plane-waves per node :      7521     7521

 maximum number of plane-waves:      7521
 maximum index in each direction: 
   IXMAX=   12   IYMAX=   12   IZMAX=   12
   IXMIN=  -12   IYMIN=  -12   IZMIN=  -12

 WARNING: aliasing errors must be expected set NGX to  50 to avoid them
 WARNING: aliasing errors must be expected set NGY to  50 to avoid them
 WARNING: aliasing errors must be expected set NGZ to  50 to avoid them
 aliasing errors are usually negligible using standard VASP settings
 and one can safely disregard these warnings

 serial   3D FFT for wavefunctions
 parallel 3D FFT for charge:
    minimum data exchange during FFTs selected (reduces bandwidth)


 total amount of memory used by VASP on root node    82054. kBytes
========================================================================

   base      :      30000. kBytes
   nonl-proj :       1444. kBytes
   fftplans  :      17864. kBytes
   grid      :      31769. kBytes
   one-center:         12. kBytes
   wavefun   :        965. kBytes
 
 Broyden mixing: mesh for mixing (old mesh)
   NGX = 25   NGY = 25   NGZ = 25
  (NGX  = 80   NGY  = 80   NGZ  = 80)
  gives a total of  15625 points

 initial charge density was supplied:
 charge density of overlapping atoms calculated
 number of electron       8.0000000 magnetization 
 keeping initial charge density in first step


--------------------------------------------------------------------------------------------------------


 Maximum index for augmentation-charges         1487 (set IRDMAX)


--------------------------------------------------------------------------------------------------------


 First call to EWALD:  gamma=   0.222
 Maximum number of real-space cells 3x 3x 3
 Maximum number of reciprocal cells 3x 3x 3

    FEWALD:  cpu time    0.00: real time    0.00


----------------------------------------- Iteration    1(   1)  ---------------------------------------


    POTLOK:  cpu time    0.80: real time    0.80
    SETDIJ:  cpu time    0.01: real time    0.01
     EDDAV:  cpu time    0.35: real time    0.35
       DOS:  cpu time    0.00: real time    0.00
    --------------------------------------------
      LOOP:  cpu time    1.16: real time    1.16

 eigenvalue-minimisations  :    24
 total energy-change (2. order) : 0.1956100E+02  (-0.2280307E+03)
 number of electron       8.0000000 magnetization 
 augmentation part        8.0000000 magnetization 

 Free energy of the ion-electron system (eV)
  ---------------------------------------------------
  alpha Z        PSCENC =         0.45053036
  Ewald energy   TEWEN  =        76.93490327
  -1/2 Hartree   DENC   =      -289.15212449
  -exchange  EXHF       =         0.00000000
  -V(xc)+E(xc)   XCENC  =        26.77013337
  PAW double counting   =       114.39100286     -115.79779708
  entropy T*S    EENTRO =         0.00000000
  eigenvalues    EBANDS =       -95.76130005
  atomic energy  EATOM  =       301.72564990
  ---------------------------------------------------
  free energy    TOTEN  =        19.56099815 eV

  energy without entropy =       19.56099815  energy(sigma->0) =       19.56099815


--------------------------------------------------------------------------------------------------------




----------------------------------------- Iteration    1(   2)  ---------------------------------------


     EDDAV:  cpu time    0.34: real time    0.34
       DOS:  cpu time    0.00: real time    0.00
    --------------------------------------------
      LOOP:  cpu time    0.34: real time    0.34

 eigenvalue-minimisations  :    24
 total energy-change (2. order) :-0.4009515E+02  (-0.4009515E+02)
 number of electron       8.0000000 magnetization 
 augmentation part        8.0000000 magnetization 

 Free energy of the ion-electron system (eV)
  ---------------------------------------------------
  alpha Z        PSCENC =         0.45053036
  Ewald energy   TEWEN  =        76.93490327
  -1/2 Hartree   DENC   =      -289.15212449
  -exchange  EXHF       =         0.00000000
  -V(xc)+E(xc)   XCENC  =        26.77013337
  PAW double counting   =       114.39100286     -115.79779708
  entropy T*S    EENTRO =         0.00000000
  eigenvalues    EBANDS =      -135.85645485
  atomic energy  EATOM  =       301.72564990
  ---------------------------------------------------
  free energy    TOTEN  =       -20.53415666 eV

  energy without entropy =      -20.53415666  energy(sigma->0) =      -20.53415666


--------------------------------------------------------------------------------------------------------




----------------------------------------- Iteration    1(   3)  ---------------------------------------


     EDDAV:  cpu time    0.26: real time    0.26
       DOS:  cpu time    0.00: real time    0.00
    --------------------------------------------
      LOOP:  cpu time    0.26: real time    0.27

 eigenvalue-minimisations  :    16
 total energy-change (2. order) :-0.1895810E+01  (-0.1895810E+01)
 number of electron       8.0000000 magnetization 
 augmentation part        8.0000000 magnetization 

 Free energy of the ion-electron system (eV)
  ---------------------------------------------------
  alpha Z        PSCENC =         0.45053036
  Ewald energy   TEWEN  =        76.93490327
  -1/2 Hartree   DENC   =      -289.15212449
  -exchange  EXHF       =         0.00000000
  -V(xc)+E(xc)   XCENC  =        26.77013337
  PAW double counting   =       114.39100286     -115.79779708
  entropy T*S    EENTRO =         0.00000000
  eigenvalues    EBANDS =      -137.75226471
  atomic energy  EATOM  =       301.72564990
  ---------------------------------------------------
  free energy    TOTEN  =       -22.42996652 eV

  energy without entropy =      -22.42996652  energy(sigma->0) =      -22.42996652


--------------------------------------------------------------------------------------------------------




----------------------------------------- Iteration    1(   4)  ---------------------------------------


     EDDAV:  cpu time    0.43: real time    0.43
       DOS:  cpu time    0.00: real time    0.00
    --------------------------------------------
      LOOP:  cpu time    0.43: real time    0.45

 eigenvalue-minimisations  :    32
 total energy-change (2. order) :-0.1749440E-01  (-0.1749440E-01)
 number of electron       8.0000000 magnetization 
 augmentation part        8.0000000 magnetization 

 Free energy of the ion-electron system (eV)
  ---------------------------------------------------
  alpha Z        PSCENC =         0.45053036
  Ewald energy   TEWEN  =        76.93490327
  -1/2 Hartree   DENC   =      -289.15212449
  -exchange  EXHF       =         0.00000000
  -V(xc)+E(xc)   XCENC  =        26.77013337
  PAW double counting   =       114.39100286     -115.79779708
  entropy T*S    EENTRO =         0.00000000
  eigenvalues    EBANDS =      -137.76975911
  atomic energy  EATOM  =       301.72564990
  ---------------------------------------------------
  free energy    TOTEN  =       -22.44746092 eV

  energy without entropy =      -22.44746092  energy(sigma->0) =      -22.44746092


--------------------------------------------------------------------------------------------------------




----------------------------------------- Iteration    1(   5)  ---------------------------------------


     EDDAV:  cpu time    0.34: real time    0.34
       DOS:  cpu time    0.00: real time    0.00
    CHARGE:  cpu time    0.09: real time    0.09
    MIXING:  cpu time    0.03: real time    0.03
    --------------------------------------------
      LOOP:  cpu time    0.45: real time    0.46

 eigenvalue-minimisations  :    24
 total energy-change (2. order) :-0.1364101E-05  (-0.1364101E-05)
 number of electron       8.0000049 magnetization 
 augmentation part        0.4030275 magnetization 

 Broyden mixing:
  rms(total) = 0.85724E+00    rms(broyden)= 0.85601E+00
  rms(prec ) = 0.13700E+01
  weight for this iteration     100.00

 Free energy of the ion-electron system (eV)
  ---------------------------------------------------
  alpha Z        PSCENC =         0.45053036
  Ewald energy   TEWEN  =        76.93490327
  -1/2 Hartree   DENC   =      -289.15212449
  -exchange  EXHF       =         0.00000000
  -V(xc)+E(xc)   XCENC  =        26.77013337
  PAW double counting   =       114.39100286     -115.79779708
  entropy T*S    EENTRO =         0.00000000
  eigenvalues    EBANDS =      -137.76976048
  atomic energy  EATOM  =       301.72564990
  ---------------------------------------------------
  free energy    TOTEN  =       -22.44746228 eV

  energy without entropy =      -22.44746228  energy(sigma->0) =      -22.44746228


--------------------------------------------------------------------------------------------------------




----------------------------------------- Iteration    1(   6)  ---------------------------------------


    POTLOK:  cpu time    0.77: real time    0.77
    SETDIJ:  cpu time    0.01: real time    0.01
     EDDAV:  cpu time    0.25: real time    0.25
       DOS:  cpu time    0.00: real time    0.00
    CHARGE:  cpu time    0.09: real time    0.09
    MIXING:  cpu time    0.03: real time    0.03
    --------------------------------------------
      LOOP:  cpu time    1.15: real time    1.20

 eigenvalue-minimisations  :    16
 total energy-change (2. order) : 0.2700313E+01  (-0.1142638E+01)
 number of electron       8.0000051 magnetization 
 augmentation part        0.3138751 magnetization 

 Broyden mixing:
  rms(total) = 0.33529E+00    rms(broyden)= 0.33498E+00
  rms(prec ) = 0.47187E+00
  weight for this iteration     100.00

 eigenvalues of (default mixing * dielectric matrix)
  average eigenvalue GAMMA=   1.0047
  1.0047

 Free energy of the ion-electron system (eV)
  ---------------------------------------------------
  alpha Z        PSCENC =         0.45053036
  Ewald energy   TEWEN  =        76.93490327
  -1/2 Hartree   DENC   =      -312.76117560
  -exchange  EXHF       =         0.00000000
  -V(xc)+E(xc)   XCENC  =        28.14328693
  PAW double counting   =       157.39188386     -159.06790822
  entropy T*S    EENTRO =         0.00000000
  eigenvalues    EBANDS =      -112.56431976
  atomic energy  EATOM  =       301.72564990
  ---------------------------------------------------
  free energy    TOTEN  =       -19.74714925 eV

  energy without entropy =      -19.74714925  energy(sigma->0) =      -19.74714925


--------------------------------------------------------------------------------------------------------




----------------------------------------- Iteration    1(   7)  ---------------------------------------


    POTLOK:  cpu time    0.77: real time    0.77
    SETDIJ:  cpu time    0.01: real time    0.01
     EDDAV:  cpu time    0.34: real time    0.34
       DOS:  cpu time    0.00: real time    0.00
    CHARGE:  cpu time    0.08: real time    0.09
    MIXING:  cpu time    0.03: real time    0.03
    --------------------------------------------
      LOOP:  cpu time    1.23: real time    1.24

 eigenvalue-minimisations  :    24
 total energy-change (2. order) : 0.2143037E+00  (-0.2964722E-01)
 number of electron       8.0000051 magnetization 
 augmentation part        0.3048670 magnetization 

 Broyden mixing:
  rms(total) = 0.20814E+00    rms(broyden)= 0.20810E+00
  rms(prec ) = 0.28604E+00
  weight for this iteration     100.00

 eigenvalues of (default mixing * dielectric matrix)
  average eigenvalue GAMMA=   1.7869
  1.1226  2.4512

 Free energy of the ion-electron system (eV)
  ---------------------------------------------------
  alpha Z        PSCENC =         0.45053036
  Ewald energy   TEWEN  =        76.93490327
  -1/2 Hartree   DENC   =      -319.18226939
  -exchange  EXHF       =         0.00000000
  -V(xc)+E(xc)   XCENC  =        28.55661990
  PAW double counting   =       169.61731103     -171.34921989
  entropy T*S    EENTRO =         0.00000000
  eigenvalues    EBANDS =      -106.28637074
  atomic energy  EATOM  =       301.72564990
  ---------------------------------------------------
  free energy    TOTEN  =       -19.53284556 eV

  energy without entropy =      -19.53284556  energy(sigma->0) =      -19.53284556


--------------------------------------------------------------------------------------------------------




----------------------------------------- Iteration    1(   8)  ---------------------------------------


    POTLOK:  cpu time    0.76: real time    0.76
    SETDIJ:  cpu time    0.01: real time    0.01
     EDDAV:  cpu time    0.43: real time    0.43
       DOS:  cpu time    0.00: real time    0.00
    CHARGE:  cpu time    0.09: real time    0.09
    MIXING:  cpu time    0.03: real time    0.03
    --------------------------------------------
      LOOP:  cpu time    1.31: real time    1.34

 eigenvalue-minimisations  :    32
 total energy-change (2. order) : 0.1267746E+00  (-0.1396199E-01)
 number of electron       8.0000050 magnetization 
 augmentation part        0.3038161 magnetization 

 Broyden mixing:
  rms(total) = 0.28196E-01    rms(broyden)= 0.28152E-01
  rms(prec ) = 0.59349E-01
  weight for this iteration     100.00

 eigenvalues of (default mixing * dielectric matrix)
  average eigenvalue GAMMA=   1.4800
  2.2956  1.0025  1.1420

 Free energy of the ion-electron system (eV)
  ---------------------------------------------------
  alpha Z        PSCENC =         0.45053036
  Ewald energy   TEWEN  =        76.93490327
  -1/2 Hartree   DENC   =      -325.84041239
  -exchange  EXHF       =         0.00000000
  -V(xc)+E(xc)   XCENC  =        29.04242201
  PAW double counting   =       181.89726415     -183.67363928
  entropy T*S    EENTRO =         0.00000000
  eigenvalues    EBANDS =       -99.94278897
  atomic energy  EATOM  =       301.72564990
  ---------------------------------------------------
  free energy    TOTEN  =       -19.40607096 eV

  energy without entropy =      -19.40607096  energy(sigma->0) =      -19.40607096


--------------------------------------------------------------------------------------------------------




----------------------------------------- Iteration    1(   9)  ---------------------------------------


    POTLOK:  cpu time    0.76: real time    0.76
    SETDIJ:  cpu time    0.01: real time    0.01
     EDDAV:  cpu time    0.25: real time    0.25
       DOS:  cpu time    0.00: real time    0.00
    CHARGE:  cpu time    0.09: real time    0.09
    MIXING:  cpu time    0.03: real time    0.03
    --------------------------------------------
      LOOP:  cpu time    1.13: real time    1.14

 eigenvalue-minimisations  :    16
 total energy-change (2. order) :-0.3147845E-02  (-0.6411975E-03)
 number of electron       8.0000050 magnetization 
 augmentation part        0.3017171 magnetization 

 Broyden mixing:
  rms(total) = 0.15618E-01    rms(broyden)= 0.15608E-01
  rms(prec ) = 0.41177E-01
  weight for this iteration     100.00

 eigenvalues of (default mixing * dielectric matrix)
  average eigenvalue GAMMA=   1.8723
  1.0208  1.0208  2.7237  2.7237

 Free energy of the ion-electron system (eV)
  ---------------------------------------------------
  alpha Z        PSCENC =         0.45053036
  Ewald energy   TEWEN  =        76.93490327
  -1/2 Hartree   DENC   =      -326.37951504
  -exchange  EXHF       =         0.00000000
  -V(xc)+E(xc)   XCENC  =        29.05017313
  PAW double counting   =       180.86342870     -182.63808210
  entropy T*S    EENTRO =         0.00000000
  eigenvalues    EBANDS =       -99.41630702
  atomic energy  EATOM  =       301.72564990
  ---------------------------------------------------
  free energy    TOTEN  =       -19.40921881 eV

  energy without entropy =      -19.40921881  energy(sigma->0) =      -19.40921881


--------------------------------------------------------------------------------------------------------




----------------------------------------- Iteration    1(  10)  ---------------------------------------


    POTLOK:  cpu time    0.74: real time    0.74
    SETDIJ:  cpu time    0.01: real time    0.01
     EDDAV:  cpu time    0.25: real time    0.25
       DOS:  cpu time    0.00: real time    0.00
    CHARGE:  cpu time    0.09: real time    0.09
    MIXING:  cpu time    0.03: real time    0.03
    --------------------------------------------
      LOOP:  cpu time    1.11: real time    1.17

 eigenvalue-minimisations  :    16
 total energy-change (2. order) :-0.5476379E-02  (-0.4482656E-03)
 number of electron       8.0000050 magnetization 
 augmentation part        0.3017833 magnetization 

 Broyden mixing:
  rms(total) = 0.74863E-02    rms(broyden)= 0.74847E-02
  rms(prec ) = 0.15173E-01
  weight for this iteration     100.00

 eigenvalues of (default mixing * dielectric matrix)
  average eigenvalue GAMMA=   1.8750
  3.4878  2.3821  1.0577  1.0577  1.3899

 Free energy of the ion-electron system (eV)
  ---------------------------------------------------
  alpha Z        PSCENC =         0.45053036
  Ewald energy   TEWEN  =        76.93490327
  -1/2 Hartree   DENC   =      -327.46335659
  -exchange  EXHF       =         0.00000000
  -V(xc)+E(xc)   XCENC  =        29.08194711
  PAW double counting   =       179.00195669     -180.76836748
  entropy T*S    EENTRO =         0.00000000
  eigenvalues    EBANDS =       -98.37795845
  atomic energy  EATOM  =       301.72564990
  ---------------------------------------------------
  free energy    TOTEN  =       -19.41469519 eV

  energy without entropy =      -19.41469519  energy(sigma->0) =      -19.41469519


--------------------------------------------------------------------------------------------------------




----------------------------------------- Iteration    1(  11)  ---------------------------------------


    POTLOK:  cpu time    0.73: real time    0.73
    SETDIJ:  cpu time    0.01: real time    0.01
     EDDAV:  cpu time    0.43: real time    0.43
       DOS:  cpu time    0.00: real time    0.00
    CHARGE:  cpu time    0.09: real time    0.09
    MIXING:  cpu time    0.03: real time    0.03
    --------------------------------------------
      LOOP:  cpu time    1.29: real time    1.30

 eigenvalue-minimisations  :    32
 total energy-change (2. order) :-0.5629767E-02  (-0.1810716E-03)
 number of electron       8.0000050 magnetization 
 augmentation part        0.3014037 magnetization 

 Broyden mixing:
  rms(total) = 0.36934E-02    rms(broyden)= 0.36868E-02
  rms(prec ) = 0.91321E-02
  weight for this iteration     100.00

 eigenvalues of (default mixing * dielectric matrix)
  average eigenvalue GAMMA=   2.1328
  4.3540  3.0450  2.2179  1.0105  1.0105  1.1592

 Free energy of the ion-electron system (eV)
  ---------------------------------------------------
  alpha Z        PSCENC =         0.45053036
  Ewald energy   TEWEN  =        76.93490327
  -1/2 Hartree   DENC   =      -327.88033165
  -exchange  EXHF       =         0.00000000
  -V(xc)+E(xc)   XCENC  =        29.10012028
  PAW double counting   =       179.59131838     -181.36028711
  entropy T*S    EENTRO =         0.00000000
  eigenvalues    EBANDS =       -97.98222838
  atomic energy  EATOM  =       301.72564990
  ---------------------------------------------------
  free energy    TOTEN  =       -19.42032495 eV

  energy without entropy =      -19.42032495  energy(sigma->0) =      -19.42032495


--------------------------------------------------------------------------------------------------------




----------------------------------------- Iteration    1(  12)  ---------------------------------------


    POTLOK:  cpu time    0.72: real time    0.72
    SETDIJ:  cpu time    0.01: real time    0.01
     EDDAV:  cpu time    0.34: real time    0.34
       DOS:  cpu time    0.00: real time    0.00
    CHARGE:  cpu time    0.08: real time    0.09
    MIXING:  cpu time    0.03: real time    0.03
    --------------------------------------------
      LOOP:  cpu time    1.18: real time    1.20

 eigenvalue-minimisations  :    24
 total energy-change (2. order) :-0.4269216E-02  (-0.1279052E-03)
 number of electron       8.0000050 magnetization 
 augmentation part        0.3019581 magnetization 

 Broyden mixing:
  rms(total) = 0.18563E-02    rms(broyden)= 0.18548E-02
  rms(prec ) = 0.38011E-02
  weight for this iteration     100.00

 eigenvalues of (default mixing * dielectric matrix)
  average eigenvalue GAMMA=   2.1415
  4.8575  3.0857  2.4823  1.0023  1.0489  1.0701  1.4434

 Free energy of the ion-electron system (eV)
  ---------------------------------------------------
  alpha Z        PSCENC =         0.45053036
  Ewald energy   TEWEN  =        76.93490327
  -1/2 Hartree   DENC   =      -327.63707947
  -exchange  EXHF       =         0.00000000
  -V(xc)+E(xc)   XCENC  =        29.07839402
  PAW double counting   =       179.36688892     -181.13471325
  entropy T*S    EENTRO =         0.00000000
  eigenvalues    EBANDS =       -98.20916793
  atomic energy  EATOM  =       301.72564990
  ---------------------------------------------------
  free energy    TOTEN  =       -19.42459417 eV

  energy without entropy =      -19.42459417  energy(sigma->0) =      -19.42459417


--------------------------------------------------------------------------------------------------------




----------------------------------------- Iteration    1(  13)  ---------------------------------------


    POTLOK:  cpu time    0.72: real time    0.72
    SETDIJ:  cpu time    0.01: real time    0.01
     EDDAV:  cpu time    0.43: real time    0.43
       DOS:  cpu time    0.00: real time    0.00
    CHARGE:  cpu time    0.09: real time    0.09
    MIXING:  cpu time    0.03: real time    0.03
    --------------------------------------------
      LOOP:  cpu time    1.28: real time    1.33

 eigenvalue-minimisations  :    32
 total energy-change (2. order) :-0.9919275E-03  (-0.1761761E-04)
 number of electron       8.0000050 magnetization 
 augmentation part        0.3017453 magnetization 

 Broyden mixing:
  rms(total) = 0.14797E-02    rms(broyden)= 0.14790E-02
  rms(prec ) = 0.21666E-02
  weight for this iteration     100.00

 eigenvalues of (default mixing * dielectric matrix)
  average eigenvalue GAMMA=   2.2967
  5.7698  3.4959  2.7105  2.2959  1.1452  1.0280  1.0280  0.9005

 Free energy of the ion-electron system (eV)
  ---------------------------------------------------
  alpha Z        PSCENC =         0.45053036
  Ewald energy   TEWEN  =        76.93490327
  -1/2 Hartree   DENC   =      -327.72580173
  -exchange  EXHF       =         0.00000000
  -V(xc)+E(xc)   XCENC  =        29.08380497
  PAW double counting   =       179.58720572     -181.35597039
  entropy T*S    EENTRO =         0.00000000
  eigenvalues    EBANDS =       -98.12590820
  atomic energy  EATOM  =       301.72564990
  ---------------------------------------------------
  free energy    TOTEN  =       -19.42558610 eV

  energy without entropy =      -19.42558610  energy(sigma->0) =      -19.42558610


--------------------------------------------------------------------------------------------------------




----------------------------------------- Iteration    1(  14)  ---------------------------------------


    POTLOK:  cpu time    0.72: real time    0.72
    SETDIJ:  cpu time    0.01: real time    0.01
     EDDAV:  cpu time    0.34: real time    0.34
       DOS:  cpu time    0.00: real time    0.00
    CHARGE:  cpu time    0.09: real time    0.09
    MIXING:  cpu time    0.03: real time    0.03
    --------------------------------------------
      LOOP:  cpu time    1.18: real time    1.20

 eigenvalue-minimisations  :    24
 total energy-change (2. order) :-0.4625137E-03  (-0.5902828E-05)
 number of electron       8.0000050 magnetization 
 augmentation part        0.3017063 magnetization 

 Broyden mixing:
  rms(total) = 0.42415E-03    rms(broyden)= 0.42382E-03
  rms(prec ) = 0.78011E-03
  weight for this iteration     100.00

 eigenvalues of (default mixing * dielectric matrix)
  average eigenvalue GAMMA=   2.4539
  6.1493  4.0986  2.7059  2.7059  2.3160  1.1104  1.0193  1.0193  0.9600

 Free energy of the ion-electron system (eV)
  ---------------------------------------------------
  alpha Z        PSCENC =         0.45053036
  Ewald energy   TEWEN  =        76.93490327
  -1/2 Hartree   DENC   =      -327.69113680
  -exchange  EXHF       =         0.00000000
  -V(xc)+E(xc)   XCENC  =        29.08070678
  PAW double counting   =       179.48539839     -181.25374812
  entropy T*S    EENTRO =         0.00000000
  eigenvalues    EBANDS =       -98.15835239
  atomic energy  EATOM  =       301.72564990
  ---------------------------------------------------
  free energy    TOTEN  =       -19.42604861 eV

  energy without entropy =      -19.42604861  energy(sigma->0) =      -19.42604861


--------------------------------------------------------------------------------------------------------




----------------------------------------- Iteration    1(  15)  ---------------------------------------


    POTLOK:  cpu time    0.73: real time    0.73
    SETDIJ:  cpu time    0.01: real time    0.01
     EDDAV:  cpu time    0.43: real time    0.43
       DOS:  cpu time    0.00: real time    0.00
    CHARGE:  cpu time    0.08: real time    0.09
    MIXING:  cpu time    0.03: real time    0.03
    --------------------------------------------
      LOOP:  cpu time    1.29: real time    1.30

 eigenvalue-minimisations  :    32
 total energy-change (2. order) :-0.1173357E-03  (-0.2074256E-05)
 number of electron       8.0000050 magnetization 
 augmentation part        0.3017694 magnetization 

 Broyden mixing:
  rms(total) = 0.14918E-03    rms(broyden)= 0.14877E-03
  rms(prec ) = 0.25034E-03
  weight for this iteration     100.00

 eigenvalues of (default mixing * dielectric matrix)
  average eigenvalue GAMMA=   2.3174
  6.3004  4.2097  2.9176  2.5387  2.1628  1.1219  1.0240  1.0240  0.9377  0.9377

 Free energy of the ion-electron system (eV)
  ---------------------------------------------------
  alpha Z        PSCENC =         0.45053036
  Ewald energy   TEWEN  =        76.93490327
  -1/2 Hartree   DENC   =      -327.67017928
  -exchange  EXHF       =         0.00000000
  -V(xc)+E(xc)   XCENC  =        29.07970920
  PAW double counting   =       179.45973354     -181.22791085
  entropy T*S    EENTRO =         0.00000000
  eigenvalues    EBANDS =       -98.17860209
  atomic energy  EATOM  =       301.72564990
  ---------------------------------------------------
  free energy    TOTEN  =       -19.42616595 eV

  energy without entropy =      -19.42616595  energy(sigma->0) =      -19.42616595


--------------------------------------------------------------------------------------------------------




----------------------------------------- Iteration    1(  16)  ---------------------------------------


    POTLOK:  cpu time    0.74: real time    0.74
    SETDIJ:  cpu time    0.01: real time    0.01
     EDDAV:  cpu time    0.25: real time    0.25
       DOS:  cpu time    0.00: real time    0.00
    --------------------------------------------
      LOOP:  cpu time    1.00: real time    1.01

 eigenvalue-minimisations  :    16
 total energy-change (2. order) :-0.5439154E-05  (-0.5509629E-07)
 number of electron       8.0000050 magnetization 
 augmentation part        0.3017694 magnetization 

 Free energy of the ion-electron system (eV)
  ---------------------------------------------------
  alpha Z        PSCENC =         0.45053036
  Ewald energy   TEWEN  =        76.93490327
  -1/2 Hartree   DENC   =      -327.67040399
  -exchange  EXHF       =         0.00000000
  -V(xc)+E(xc)   XCENC  =        29.07966876
  PAW double counting   =       179.45889786     -181.22709886
  entropy T*S    EENTRO =         0.00000000
  eigenvalues    EBANDS =       -98.17831869
  atomic energy  EATOM  =       301.72564990
  ---------------------------------------------------
  free energy    TOTEN  =       -19.42617139 eV

  energy without entropy =      -19.42617139  energy(sigma->0) =      -19.42617139


--------------------------------------------------------------------------------------------------------




 average (electrostatic) potential at core
  the test charge radii are     0.5201  0.7089
  (the norm of the test charge is              1.0001)
       1 -43.0345       2 -43.0357       3 -43.0357       4 -72.7225
 
 
 
 E-fermi :  -5.8600     XC(G=0):  -1.1424     alpha+bet : -0.3315


 k-point   1 :       0.0000    0.0000    0.0000
  band No.  band energies     occupation 
      1     -21.0297      2.00000
      2     -11.0497      2.00000
      3     -11.0495      2.00000
      4      -5.9602      2.00000
      5      -0.9036      0.00000
      6       1.4140      0.00000
      7       1.4958      0.00000
      8       1.5024      0.00000


--------------------------------------------------------------------------------------------------------


 soft charge-density along one line, spin component           1
         0         1         2         3         4         5         6         7         8         9
 total charge-density along one line
 
 pseudopotential strength for first ion, spin component:           1
 -2.362  -0.014   0.002  -0.001   0.000
 -0.014   0.049   0.002  -0.001   0.000
  0.002   0.002  -0.325  -0.003   0.000
 -0.001  -0.001  -0.003  -0.330   0.000
  0.000   0.000   0.000   0.000  -0.331
 total augmentation occupancy for first ion, spin component:           1
  1.739  -0.693  -0.349   0.132   0.000
 -0.693   0.375   0.159  -0.067   0.000
 -0.349   0.159   0.076  -0.022   0.000
  0.132  -0.067  -0.022   0.036   0.000
  0.000   0.000   0.000   0.000   0.014


------------------------ aborting loop because EDIFF is reached ----------------------------------------


    CHARGE:  cpu time    0.09: real time    0.09
    FORLOC:  cpu time    0.07: real time    0.08
    FORNL :  cpu time    0.04: real time    0.04
    STRESS:  cpu time    0.19: real time    0.19
    FORHAR:  cpu time    0.24: real time    0.24
    MIXING:  cpu time    0.03: real time    0.03

  FORCE on cell =-STRESS in cart. coord.  units (eV):
  Direction    XX          YY          ZZ          XY          YZ          ZX
  --------------------------------------------------------------------------------------
  Alpha Z     0.45053     0.45053     0.45053
  Ewald      50.38481    50.38072   -23.83067     0.00000     0.01178     0.00000
  Hartree   113.97577   113.97179    99.72194     0.00000     0.00781     0.00000
  E(xc)     -30.72878   -30.72883   -30.97360     0.00000    -0.00005     0.00000
  Local    -234.18310  -234.17766  -166.81350     0.00000    -0.01832     0.00000
  n-local   -21.96537   -21.96548   -23.93490     0.00000     0.00029     0.00000
  augment     1.19473     1.19709     1.78571     0.00000    -0.00003     0.00000
  Kinetic   119.53676   119.53707   141.77272     0.00000    -0.00181     0.00000
  Fock        0.00000     0.00000     0.00000     0.00000     0.00000     0.00000
  -------------------------------------------------------------------------------------
  Total      -1.33465    -1.33478    -1.82177     0.00000    -0.00034     0.00000
  in kB      -4.17647    -4.17685    -5.70077     0.00000    -0.00106     0.00000
  external pressure =       -4.68 kB  Pullay stress =        0.00 kB


 VOLUME and BASIS-vectors are now :
 -----------------------------------------------------------------------------
  energy-cutoff  :      350.00
  volume of cell :      512.00
      direct lattice vectors                 reciprocal lattice vectors
     8.000000000  0.000000000  0.000000000     0.125000000  0.000000000  0.000000000
     0.000000000  8.000000000  0.000000000     0.000000000  0.125000000  0.000000000
     0.000000000  0.000000000  8.000000000     0.000000000  0.000000000  0.125000000

  length of vectors
     8.000000000  8.000000000  8.000000000     0.125000000  0.125000000  0.125000000


 FORCES acting on ions
    electron-ion (+dipol)            ewald-force                    non-local-force                 convergence-correction
 -----------------------------------------------------------------------------------------------
   0.186E-13 -.658E+02 0.237E+02   -.417E-15 0.729E+02 -.264E+02   0.000E+00 -.671E+01 0.254E+01   0.688E-14 -.156E-04 -.161E-03
   -.570E+02 0.329E+02 0.237E+02   0.631E+02 -.365E+02 -.264E+02   -.581E+01 0.335E+01 0.254E+01   -.236E-04 -.156E-04 -.151E-03
   0.570E+02 0.329E+02 0.237E+02   -.631E+02 -.365E+02 -.264E+02   0.581E+01 0.335E+01 0.254E+01   0.236E-04 -.156E-04 -.151E-03
   0.132E-12 -.363E-01 -.494E+02   -.730E-14 0.424E-01 0.791E+02   0.000E+00 -.281E-02 -.292E+02   0.609E-13 -.318E-03 -.113E-02
 -----------------------------------------------------------------------------------------------
   0.396E-14 0.691E-02 0.216E+02   -.192E-15 0.184E-13 0.000E+00   0.000E+00 -.546E-02 -.216E+02   0.747E-13 -.365E-03 -.159E-02
 
 
 POSITION                                       TOTAL-FORCE (eV/Angst)
 -----------------------------------------------------------------------------------
      4.00000      4.70480      3.80585         0.000000      0.386841     -0.146263
      4.81383      3.29520      3.80585         0.338133     -0.194733     -0.150519
      3.18617      3.29520      3.80585        -0.338133     -0.194733     -0.150519
      4.00000      3.76507      4.19415         0.000000      0.002626      0.447301
 -----------------------------------------------------------------------------------
    total drift:                                0.000000      0.001085     -0.001120


--------------------------------------------------------------------------------------------------------



  FREE ENERGIE OF THE ION-ELECTRON SYSTEM (eV)
  ---------------------------------------------------
  free  energy   TOTEN  =       -19.426171 eV

  energy  without entropy=      -19.426171  energy(sigma->0) =      -19.426171
 


--------------------------------------------------------------------------------------------------------


    POTLOK:  cpu time    0.76: real time    0.76


--------------------------------------------------------------------------------------------------------


 Quasi-Newton relaxation of ions (Broydens 2nd method)
  g(Force)  = 0.348E-01   g(Stress)= 0.000E+00

 Reset! Starting new Quasi-Newton update for ions 


--------------------------------------------------------------------------------------------------------


    WAVPRE:  cpu time    0.15: real time    0.15
    FEWALD:  cpu time    0.00: real time    0.00
    ORTHCH:  cpu time    0.01: real time    0.01
     LOOP+:  cpu time   18.34: real time   18.89


----------------------------------------- Iteration    2(   1)  ---------------------------------------


    POTLOK:  cpu time    0.75: real time    0.75
    SETDIJ:  cpu time    0.01: real time    0.01
     EDDAV:  cpu time    0.25: real time    0.25
       DOS:  cpu time    0.00: real time    0.00
    CHARGE:  cpu time    0.09: real time    0.09
    MIXING:  cpu time    0.02: real time    0.03
    --------------------------------------------
      LOOP:  cpu time    1.13: real time    1.13

 eigenvalue-minimisations  :    16
 total energy-change (2. order) :-0.1798688E-02  (-0.3031545E+00)
 number of electron       8.0000029 magnetization 
 augmentation part        0.2834103 magnetization 

 Broyden mixing:
  rms(total) = 0.72638E-01    rms(broyden)= 0.72427E-01
  rms(prec ) = 0.10445E+00
  weight for this iteration     100.00

 Free energy of the ion-electron system (eV)
  ---------------------------------------------------
  alpha Z        PSCENC =         0.45053036
  Ewald energy   TEWEN  =        70.69090289
  -1/2 Hartree   DENC   =      -324.43302944
  -exchange  EXHF       =         0.00000000
  -V(xc)+E(xc)   XCENC  =        28.91830180
  PAW double counting   =       179.47030166     -181.23856676
  entropy T*S    EENTRO =         0.00000000
  eigenvalues    EBANDS =       -95.01205506
  atomic energy  EATOM  =       301.72564990
  ---------------------------------------------------
  free energy    TOTEN  =       -19.42796464 eV

  energy without entropy =      -19.42796464  energy(sigma->0) =      -19.42796464


--------------------------------------------------------------------------------------------------------




----------------------------------------- Iteration    2(   2)  ---------------------------------------


    POTLOK:  cpu time    0.69: real time    0.69
    SETDIJ:  cpu time    0.01: real time    0.01
     EDDAV:  cpu time    0.34: real time    0.34
       DOS:  cpu time    0.00: real time    0.00
    CHARGE:  cpu time    0.08: real time    0.09
    MIXING:  cpu time    0.03: real time    0.03
    --------------------------------------------
      LOOP:  cpu time    1.15: real time    1.17

 eigenvalue-minimisations  :    24
 total energy-change (2. order) : 0.1130439E-01  (-0.8788413E-02)
 number of electron       8.0000029 magnetization 
 augmentation part        0.2873249 magnetization 

 Broyden mixing:
  rms(total) = 0.24430E-01    rms(broyden)= 0.24397E-01
  rms(prec ) = 0.31970E-01
  weight for this iteration     100.00

 eigenvalues of (default mixing * dielectric matrix)
  average eigenvalue GAMMA=   1.1691
  1.1691

 Free energy of the ion-electron system (eV)
  ---------------------------------------------------
  alpha Z        PSCENC =         0.45053036
  Ewald energy   TEWEN  =        70.69090289
  -1/2 Hartree   DENC   =      -322.84379274
  -exchange  EXHF       =         0.00000000
  -V(xc)+E(xc)   XCENC  =        28.82795953
  PAW double counting   =       175.31830150     -177.06308014
  entropy T*S    EENTRO =         0.00000000
  eigenvalues    EBANDS =       -96.52313155
  atomic energy  EATOM  =       301.72564990
  ---------------------------------------------------
  free energy    TOTEN  =       -19.41666024 eV

  energy without entropy =      -19.41666024  energy(sigma->0) =      -19.41666024


--------------------------------------------------------------------------------------------------------




----------------------------------------- Iteration    2(   3)  ---------------------------------------


    POTLOK:  cpu time    0.69: real time    0.69
    SETDIJ:  cpu time    0.01: real time    0.01
     EDDAV:  cpu time    0.33: real time    0.34
       DOS:  cpu time    0.00: real time    0.00
    CHARGE:  cpu time    0.09: real time    0.09
    MIXING:  cpu time    0.03: real time    0.03
    --------------------------------------------
      LOOP:  cpu time    1.15: real time    1.16

 eigenvalue-minimisations  :    24
 total energy-change (2. order) : 0.8156220E-03  (-0.3193299E-03)
 number of electron       8.0000029 magnetization 
 augmentation part        0.2880294 magnetization 

 Broyden mixing:
  rms(total) = 0.11218E-01    rms(broyden)= 0.11209E-01
  rms(prec ) = 0.14129E-01
  weight for this iteration     100.00

 eigenvalues of (default mixing * dielectric matrix)
  average eigenvalue GAMMA=   1.4809
  1.1504  1.8114

 Free energy of the ion-electron system (eV)
  ---------------------------------------------------
  alpha Z        PSCENC =         0.45053036
  Ewald energy   TEWEN  =        70.69090289
  -1/2 Hartree   DENC   =      -322.56213776
  -exchange  EXHF       =         0.00000000
  -V(xc)+E(xc)   XCENC  =        28.81078920
  PAW double counting   =       173.81765070     -175.55268879
  entropy T*S    EENTRO =         0.00000000
  eigenvalues    EBANDS =       -96.79654113
  atomic energy  EATOM  =       301.72564990
  ---------------------------------------------------
  free energy    TOTEN  =       -19.41584462 eV

  energy without entropy =      -19.41584462  energy(sigma->0) =      -19.41584462


--------------------------------------------------------------------------------------------------------




----------------------------------------- Iteration    2(   4)  ---------------------------------------


    POTLOK:  cpu time    0.70: real time    0.70
    SETDIJ:  cpu time    0.01: real time    0.01
     EDDAV:  cpu time    0.42: real time    0.42
       DOS:  cpu time    0.00: real time    0.00
    --------------------------------------------
      LOOP:  cpu time    1.13: real time    1.15

 eigenvalue-minimisations  :    32
 total energy-change (2. order) : 0.2395949E-04  (-0.6993215E-04)
 number of electron       8.0000029 magnetization 
 augmentation part        0.2880294 magnetization 

 Free energy of the ion-electron system (eV)
  ---------------------------------------------------
  alpha Z        PSCENC =         0.45053036
  Ewald energy   TEWEN  =        70.69090289
  -1/2 Hartree   DENC   =      -322.53412903
  -exchange  EXHF       =         0.00000000
  -V(xc)+E(xc)   XCENC  =        28.80763213
  PAW double counting   =       172.90465492     -174.63354773
  entropy T*S    EENTRO =         0.00000000
  eigenvalues    EBANDS =       -96.82751410
  atomic energy  EATOM  =       301.72564990
  ---------------------------------------------------
  free energy    TOTEN  =       -19.41582066 eV

  energy without entropy =      -19.41582066  energy(sigma->0) =      -19.41582066


--------------------------------------------------------------------------------------------------------




 average (electrostatic) potential at core
  the test charge radii are     0.5201  0.7089
  (the norm of the test charge is              1.0000)
       1 -42.7629       2 -42.7600       3 -42.7600       4 -72.7835
 
 
 
 E-fermi :  -5.9356     XC(G=0):  -1.0936     alpha+bet : -0.3315


 k-point   1 :       0.0000    0.0000    0.0000
  band No.  band energies     occupation 
      1     -20.7754      2.00000
      2     -10.8093      2.00000
      3     -10.8070      2.00000
      4      -6.0220      2.00000
      5      -0.9255      0.00000
      6       1.3763      0.00000
      7       1.4842      0.00000
      8       1.5093      0.00000


--------------------------------------------------------------------------------------------------------


 soft charge-density along one line, spin component           1
         0         1         2         3         4         5         6         7         8         9
 total charge-density along one line
 
 pseudopotential strength for first ion, spin component:           1
 -2.359  -0.013   0.002  -0.001   0.000
 -0.013   0.049   0.002  -0.001   0.000
  0.002   0.002  -0.328  -0.002   0.000
 -0.001  -0.001  -0.002  -0.332   0.000
  0.000   0.000   0.000   0.000  -0.333
 total augmentation occupancy for first ion, spin component:           1
  1.665  -0.669  -0.312   0.123   0.000
 -0.669   0.363   0.145  -0.064   0.000
 -0.312   0.145   0.064  -0.020   0.000
  0.123  -0.064  -0.020   0.032   0.000
  0.000   0.000   0.000   0.000   0.012


------------------------ aborting loop because EDIFF is reached ----------------------------------------


    CHARGE:  cpu time    0.08: real time    0.09
    FORLOC:  cpu time    0.08: real time    0.08
    FORNL :  cpu time    0.04: real time    0.04
    STRESS:  cpu time    0.19: real time    0.19
    FORHAR:  cpu time    0.24: real time    0.24
    MIXING:  cpu time    0.03: real time    0.03

  FORCE on cell =-STRESS in cart. coord.  units (eV):
  Direction    XX          YY          ZZ          XY          YZ          ZX
  --------------------------------------------------------------------------------------
  Alpha Z     0.45053     0.45053     0.45053
  Ewald      46.27542    46.31296   -21.89753     0.00000     0.01126     0.00000
  Hartree   111.99947   111.99626    98.41472     0.00000     0.01177     0.00000
  E(xc)     -30.44822   -30.44821   -30.67692     0.00000     0.00000     0.00000
  Local    -229.28546  -229.30592  -166.52027     0.00000    -0.02439     0.00000
  n-local   -21.05566   -21.05774   -23.11930     0.00000     0.00205     0.00000
  augment     1.17195     1.17340     1.71870     0.00000    -0.00031     0.00000
  Kinetic   118.20437   118.20085   139.33934     0.00000    -0.00570     0.00000
  Fock        0.00000     0.00000     0.00000     0.00000     0.00000     0.00000
  -------------------------------------------------------------------------------------
  Total      -2.68760    -2.67787    -2.29074     0.00000    -0.00532     0.00000
  in kB      -8.41019    -8.37973    -7.16830     0.00000    -0.01665     0.00000
  external pressure =       -7.99 kB  Pullay stress =        0.00 kB


 VOLUME and BASIS-vectors are now :
 -----------------------------------------------------------------------------
  energy-cutoff  :      350.00
  volume of cell :      512.00
      direct lattice vectors                 reciprocal lattice vectors
     8.000000000  0.000000000  0.000000000     0.125000000  0.000000000  0.000000000
     0.000000000  8.000000000  0.000000000     0.000000000  0.125000000  0.000000000
     0.000000000  0.000000000  8.000000000     0.000000000  0.000000000  0.125000000

  length of vectors
     8.000000000  8.000000000  8.000000000     0.125000000  0.125000000  0.125000000


 FORCES acting on ions
    electron-ion (+dipol)            ewald-force                    non-local-force                 convergence-correction
 -----------------------------------------------------------------------------------------------
   0.176E-13 -.630E+02 0.239E+02   0.450E-15 0.686E+02 -.261E+02   0.000E+00 -.608E+01 0.242E+01   0.904E-14 -.954E-02 0.150E-02
   -.546E+02 0.315E+02 0.239E+02   0.593E+02 -.343E+02 -.261E+02   -.526E+01 0.304E+01 0.241E+01   -.800E-02 0.471E-02 0.140E-02
   0.546E+02 0.315E+02 0.239E+02   -.593E+02 -.343E+02 -.261E+02   0.526E+01 0.304E+01 0.241E+01   0.800E-02 0.471E-02 0.140E-02
   0.132E-12 -.145E-01 -.485E+02   0.181E-14 0.636E-02 0.782E+02   0.000E+00 -.400E-02 -.303E+02   0.656E-13 0.314E-03 -.364E-01
 -----------------------------------------------------------------------------------------------
   0.125E-12 0.130E-01 0.231E+02   0.181E-14 0.165E-13 0.000E+00   0.000E+00 -.140E-01 -.231E+02   0.844E-13 0.198E-03 -.321E-01
 
 
 POSITION                                       TOTAL-FORCE (eV/Angst)
 -----------------------------------------------------------------------------------
      4.00000      4.72346      3.79880         0.000000     -0.572465      0.231255
      4.83014      3.28581      3.79859        -0.504088      0.292027      0.233833
      3.16986      3.28581      3.79859         0.504088      0.292027      0.233833
      4.00000      3.76519      4.21573         0.000000     -0.011590     -0.698920
 -----------------------------------------------------------------------------------
    total drift:                                0.000000     -0.000875     -0.011201


--------------------------------------------------------------------------------------------------------



  FREE ENERGIE OF THE ION-ELECTRON SYSTEM (eV)
  ---------------------------------------------------
  free  energy   TOTEN  =       -19.415821 eV

  energy  without entropy=      -19.415821  energy(sigma->0) =      -19.415821
 
 d Force =-0.8973490E-02[-0.527E-01, 0.348E-01]  d Energy =-0.1035073E-01 0.138E-02
 d Force = 0.6244818E+01[ 0.611E+01, 0.638E+01]  d Ewald  = 0.6244000E+01 0.818E-03


--------------------------------------------------------------------------------------------------------


    POTLOK:  cpu time    0.71: real time    0.71


--------------------------------------------------------------------------------------------------------


 Quasi-Newton relaxation of ions (Broydens 2nd method)
  g(Force)  = 0.800E-01   g(Stress)= 0.000E+00

 retain information from N=  1 steps
 eigenvalues of (default step * inverse Hessian matrix)
  average eigenvalue of G=   0.3974
 eigenvalue spectrum of G is  0.3974


--------------------------------------------------------------------------------------------------------


    WAVPRE:  cpu time    0.15: real time    0.15
    FEWALD:  cpu time    0.00: real time    0.00
    ORTHCH:  cpu time    0.01: real time    0.01
     LOOP+:  cpu time    6.09: real time    7.40


----------------------------------------- Iteration    3(   1)  ---------------------------------------


    POTLOK:  cpu time    0.70: real time    0.70
    SETDIJ:  cpu time    0.01: real time    0.01
     EDDAV:  cpu time    0.25: real time    0.25
       DOS:  cpu time    0.00: real time    0.00
    CHARGE:  cpu time    0.09: real time    0.09
    MIXING:  cpu time    0.02: real time    0.03
    --------------------------------------------
      LOOP:  cpu time    1.07: real time    1.07

 eigenvalue-minimisations  :    16
 total energy-change (2. order) :-0.2136740E-01  (-0.1146693E+00)
 number of electron       8.0000045 magnetization 
 augmentation part        0.2988170 magnetization 

 Broyden mixing:
  rms(total) = 0.43848E-01    rms(broyden)= 0.43714E-01
  rms(prec ) = 0.63065E-01
  weight for this iteration     100.00

 Free energy of the ion-electron system (eV)
  ---------------------------------------------------
  alpha Z        PSCENC =         0.45053036
  Ewald energy   TEWEN  =        74.41818463
  -1/2 Hartree   DENC   =      -324.40080573
  -exchange  EXHF       =         0.00000000
  -V(xc)+E(xc)   XCENC  =        28.89944046
  PAW double counting   =       172.52155742     -174.24778352
  entropy T*S    EENTRO =         0.00000000
  eigenvalues    EBANDS =       -98.80398553
  atomic energy  EATOM  =       301.72564990
  ---------------------------------------------------
  free energy    TOTEN  =       -19.43721202 eV

  energy without entropy =      -19.43721202  energy(sigma->0) =      -19.43721202


--------------------------------------------------------------------------------------------------------




----------------------------------------- Iteration    3(   2)  ---------------------------------------


    POTLOK:  cpu time    0.73: real time    0.73
    SETDIJ:  cpu time    0.01: real time    0.01
     EDDAV:  cpu time    0.33: real time    0.33
       DOS:  cpu time    0.00: real time    0.00
    CHARGE:  cpu time    0.08: real time    0.09
    MIXING:  cpu time    0.03: real time    0.03
    --------------------------------------------
      LOOP:  cpu time    1.19: real time    1.23

 eigenvalue-minimisations  :    24
 total energy-change (2. order) : 0.4287335E-02  (-0.2948611E-02)
 number of electron       8.0000045 magnetization 
 augmentation part        0.2967053 magnetization 

 Broyden mixing:
  rms(total) = 0.14404E-01    rms(broyden)= 0.14386E-01
  rms(prec ) = 0.18914E-01
  weight for this iteration     100.00

 eigenvalues of (default mixing * dielectric matrix)
  average eigenvalue GAMMA=   1.1995
  1.1995

 Free energy of the ion-electron system (eV)
  ---------------------------------------------------
  alpha Z        PSCENC =         0.45053036
  Ewald energy   TEWEN  =        74.41818463
  -1/2 Hartree   DENC   =      -325.35295661
  -exchange  EXHF       =         0.00000000
  -V(xc)+E(xc)   XCENC  =        28.95326965
  PAW double counting   =       174.92742845     -176.66741215
  entropy T*S    EENTRO =         0.00000000
  eigenvalues    EBANDS =       -97.88761891
  atomic energy  EATOM  =       301.72564990
  ---------------------------------------------------
  free energy    TOTEN  =       -19.43292468 eV

  energy without entropy =      -19.43292468  energy(sigma->0) =      -19.43292468


--------------------------------------------------------------------------------------------------------




----------------------------------------- Iteration    3(   3)  ---------------------------------------


    POTLOK:  cpu time    0.75: real time    0.75
    SETDIJ:  cpu time    0.01: real time    0.01
     EDDAV:  cpu time    0.25: real time    0.25
       DOS:  cpu time    0.00: real time    0.00
    CHARGE:  cpu time    0.08: real time    0.09
    MIXING:  cpu time    0.03: real time    0.03
    --------------------------------------------
      LOOP:  cpu time    1.12: real time    1.13

 eigenvalue-minimisations  :    16
 total energy-change (2. order) : 0.2984483E-03  (-0.1262741E-03)
 number of electron       8.0000045 magnetization 
 augmentation part        0.2962086 magnetization 

 Broyden mixing:
  rms(total) = 0.64129E-02    rms(broyden)= 0.64074E-02
  rms(prec ) = 0.80365E-02
  weight for this iteration     100.00

 eigenvalues of (default mixing * dielectric matrix)
  average eigenvalue GAMMA=   1.5148
  1.1915  1.8380

 Free energy of the ion-electron system (eV)
  ---------------------------------------------------
  alpha Z        PSCENC =         0.45053036
  Ewald energy   TEWEN  =        74.41818463
  -1/2 Hartree   DENC   =      -325.54677710
  -exchange  EXHF       =         0.00000000
  -V(xc)+E(xc)   XCENC  =        28.96521460
  PAW double counting   =       175.85409900     -177.60020681
  entropy T*S    EENTRO =         0.00000000
  eigenvalues    EBANDS =       -97.69932081
  atomic energy  EATOM  =       301.72564990
  ---------------------------------------------------
  free energy    TOTEN  =       -19.43262624 eV

  energy without entropy =      -19.43262624  energy(sigma->0) =      -19.43262624


--------------------------------------------------------------------------------------------------------




----------------------------------------- Iteration    3(   4)  ---------------------------------------


    POTLOK:  cpu time    0.76: real time    0.76
    SETDIJ:  cpu time    0.01: real time    0.01
     EDDAV:  cpu time    0.33: real time    0.33
       DOS:  cpu time    0.00: real time    0.00
    --------------------------------------------
      LOOP:  cpu time    1.11: real time    1.16

 eigenvalue-minimisations  :    24
 total energy-change (2. order) :-0.1589598E-04  (-0.2257644E-04)
 number of electron       8.0000045 magnetization 
 augmentation part        0.2962086 magnetization 

 Free energy of the ion-electron system (eV)
  ---------------------------------------------------
  alpha Z        PSCENC =         0.45053036
  Ewald energy   TEWEN  =        74.41818463
  -1/2 Hartree   DENC   =      -325.56032514
  -exchange  EXHF       =         0.00000000
  -V(xc)+E(xc)   XCENC  =        28.96715030
  PAW double counting   =       176.37333016     -178.12300362
  entropy T*S    EENTRO =         0.00000000
  eigenvalues    EBANDS =       -97.68415873
  atomic energy  EATOM  =       301.72564990
  ---------------------------------------------------
  free energy    TOTEN  =       -19.43264213 eV

  energy without entropy =      -19.43264213  energy(sigma->0) =      -19.43264213


--------------------------------------------------------------------------------------------------------




 average (electrostatic) potential at core
  the test charge radii are     0.5201  0.7089
  (the norm of the test charge is              1.0000)
       1 -42.9281       2 -42.9305       3 -42.9305       4 -72.7557
 
 
 
 E-fermi :  -5.9380     XC(G=0):  -1.1910     alpha+bet : -0.3315


 k-point   1 :       0.0000    0.0000    0.0000
  band No.  band energies     occupation 
      1     -20.9341      2.00000
      2     -10.9615      2.00000
      3     -10.9602      2.00000
      4      -5.9863      2.00000
      5      -0.9460      0.00000
      6       1.3700      0.00000
      7       1.4444      0.00000
      8       1.4621      0.00000


--------------------------------------------------------------------------------------------------------


 soft charge-density along one line, spin component           1
         0         1         2         3         4         5         6         7         8         9
 total charge-density along one line
 
 pseudopotential strength for first ion, spin component:           1
 -2.361  -0.014   0.002  -0.001   0.000
 -0.014   0.049   0.002  -0.001   0.000
  0.002   0.002  -0.326  -0.002   0.000
 -0.001  -0.001  -0.002  -0.331   0.000
  0.000   0.000   0.000   0.000  -0.332
 total augmentation occupancy for first ion, spin component:           1
  1.709  -0.683  -0.334   0.128   0.000
 -0.683   0.370   0.153  -0.066   0.000
 -0.334   0.153   0.071  -0.021   0.000
  0.128  -0.066  -0.021   0.034   0.000
  0.000   0.000   0.000   0.000   0.013


------------------------ aborting loop because EDIFF is reached ----------------------------------------


    CHARGE:  cpu time    0.08: real time    0.09
    FORLOC:  cpu time    0.08: real time    0.08
    FORNL :  cpu time    0.03: real time    0.04
    STRESS:  cpu time    0.19: real time    0.19
    FORHAR:  cpu time    0.24: real time    0.24
    MIXING:  cpu time    0.03: real time    0.03

  FORCE on cell =-STRESS in cart. coord.  units (eV):
  Direction    XX          YY          ZZ          XY          YZ          ZX
  --------------------------------------------------------------------------------------
  Alpha Z     0.45053     0.45053     0.45053
  Ewald      48.78486    48.75886   -23.12559     0.00000     0.02081     0.00000
  Hartree   113.21469   113.20756    99.19616     0.00000     0.00886     0.00000
  E(xc)     -30.61141   -30.61154   -30.85113     0.00000    -0.00005     0.00000
  Local    -232.29404  -232.26992  -166.63503     0.00000    -0.02474     0.00000
  n-local   -21.60764   -21.60704   -23.61789     0.00000     0.00043     0.00000
  augment     1.18653     1.18884     1.76072     0.00000    -0.00022     0.00000
  Kinetic   118.99915   119.00334   140.85442     0.00000    -0.00360     0.00000
  Fock        0.00000     0.00000     0.00000     0.00000     0.00000     0.00000
  -------------------------------------------------------------------------------------
  Total      -1.87733    -1.87937    -1.96782     0.00000     0.00148     0.00000
  in kB      -5.87464    -5.88102    -6.15780     0.00000     0.00465     0.00000
  external pressure =       -5.97 kB  Pullay stress =        0.00 kB


 VOLUME and BASIS-vectors are now :
 -----------------------------------------------------------------------------
  energy-cutoff  :      350.00
  volume of cell :      512.00
      direct lattice vectors                 reciprocal lattice vectors
     8.000000000  0.000000000  0.000000000     0.125000000  0.000000000  0.000000000
     0.000000000  8.000000000  0.000000000     0.000000000  0.125000000  0.000000000
     0.000000000  0.000000000  8.000000000     0.000000000  0.000000000  0.125000000

  length of vectors
     8.000000000  8.000000000  8.000000000     0.125000000  0.125000000  0.125000000


 FORCES acting on ions
    electron-ion (+dipol)            ewald-force                    non-local-force                 convergence-correction
 -----------------------------------------------------------------------------------------------
   0.164E-13 -.647E+02 0.237E+02   0.111E-14 0.711E+02 -.262E+02   0.000E+00 -.645E+01 0.249E+01   0.535E-14 0.467E-02 -.635E-03
   -.560E+02 0.324E+02 0.238E+02   0.616E+02 -.356E+02 -.262E+02   -.559E+01 0.322E+01 0.249E+01   0.399E-02 -.231E-02 -.630E-03
   0.560E+02 0.324E+02 0.238E+02   -.616E+02 -.356E+02 -.262E+02   0.559E+01 0.322E+01 0.249E+01   -.399E-02 -.231E-02 -.630E-03
   0.132E-12 -.317E-01 -.491E+02   0.991E-14 0.368E-01 0.787E+02   0.000E+00 0.263E-02 -.297E+02   0.659E-13 0.246E-03 0.183E-01
 -----------------------------------------------------------------------------------------------
   0.394E-13 0.135E-02 0.222E+02   0.281E-14 0.373E-14 0.142E-13   0.000E+00 -.841E-04 -.222E+02   0.773E-13 0.303E-03 0.164E-01
 
 
 POSITION                                       TOTAL-FORCE (eV/Angst)
 -----------------------------------------------------------------------------------
      4.00000      4.71249      3.80323         0.000000     -0.028426      0.009458
      4.82048      3.29141      3.80307        -0.018398      0.010463      0.003544
      3.17952      3.29141      3.80307         0.018398      0.010463      0.003544
      4.00000      3.76497      4.20233         0.000000      0.007499     -0.016547
 -----------------------------------------------------------------------------------
    total drift:                                0.000000      0.001571      0.004930


--------------------------------------------------------------------------------------------------------



  FREE ENERGIE OF THE ION-ELECTRON SYSTEM (eV)
  ---------------------------------------------------
  free  energy   TOTEN  =       -19.432642 eV

  energy  without entropy=      -19.432642  energy(sigma->0) =      -19.432642
 
 d Force = 0.1643063E-01[ 0.108E-02, 0.318E-01]  d Energy = 0.1682147E-01-0.391E-03
 d Force =-0.3727431E+01[-0.377E+01,-0.368E+01]  d Ewald  =-0.3727282E+01-0.149E-03


--------------------------------------------------------------------------------------------------------


    POTLOK:  cpu time    0.78: real time    0.78


--------------------------------------------------------------------------------------------------------


 Quasi-Newton relaxation of ions (Broydens 2nd method)
  g(Force)  = 0.104E-03   g(Stress)= 0.000E+00

 retain information from N=  1 steps
 eigenvalues of (default step * inverse Hessian matrix)
  average eigenvalue of G=   0.4113
 eigenvalue spectrum of G is  0.4113


--------------------------------------------------------------------------------------------------------


  
 reached required accuracy - stopping structural energy minimisation
 writing wavefunctions
     LOOP+:  cpu time    5.94: real time    6.38
    4ORBIT:  cpu time    0.00: real time    0.00

 total amount of memory used by VASP on root node    82054. kBytes
========================================================================

   base      :      30000. kBytes
   nonl-proj :       1444. kBytes
   fftplans  :      17864. kBytes
   grid      :      31769. kBytes
   one-center:         12. kBytes
   wavefun   :        965. kBytes
 
  
  
 General timing and accounting informations for this job:
 ========================================================
  
                  Total CPU time used (sec):       32.059
                            User time (sec):       31.598
                          System time (sec):        0.461
                         Elapsed time (sec):       34.762
  
                   Maximum memory used (kb):           0.
                   Average memory used (kb):           0.
  
                          Minor page faults:       143140
                          Major page faults:            0
                 Voluntary context switches:          861
