<?xml version="1.0" encoding="ISO-8859-1"?>
<modeling>
 <generator>
  <i name="program" type="string">vasp </i>
  <i name="version" type="string">5.2.12  </i>
  <i name="subversion" type="string">11Nov11 complex                                                      parallel </i>
  <i name="platform" type="string">LinuxIFC </i>
  <i name="date" type="string">2012 10 31 </i>
  <i name="time" type="string">15:55:35 </i>
 </generator>
 <incar>
  <i type="string" name="PREC">normal</i>
  <i type="int" name="IBRION">     1</i>
  <i name="EDIFFG">     -0.05000000</i>
  <i type="int" name="NSW">    50</i>
  <i name="ENCUT">    350.00000000</i>
  <i type="int" name="ISMEAR">     0</i>
  <i name="SIGMA">      0.01000000</i>
 </incar>
 <kpoints>
  <generation param="Monkhorst-Pack">
   <v type="int" name="divisions">       1        1        1 </v>
   <v name="usershift">      0.00000000       0.00000000       0.00000000 </v>
   <v name="genvec1">      1.00000000       0.00000000       0.00000000 </v>
   <v name="genvec2">      0.00000000       1.00000000       0.00000000 </v>
   <v name="genvec3">      0.00000000       0.00000000       1.00000000 </v>
   <v name="shift">      0.00000000       0.00000000       0.00000000 </v>
  </generation>
  <varray name="kpointlist" >
   <v>       0.00000000       0.00000000       0.00000000 </v>
  </varray>
  <varray name="weights" >
   <v>       1.00000000 </v>
  </varray>
 </kpoints>
 <parameters>
  <separator name="general" >
   <i type="string" name="SYSTEM">unknown system</i>
   <i type="logical" name="LCOMPAT"> F  </i>
  </separator>
  <separator name="electronic" >
   <i type="string" name="PREC">normal</i>
   <i name="ENMAX">    350.00000000</i>
   <i name="ENAUG">    627.11200000</i>
   <i name="EDIFF">      0.00010000</i>
   <i type="int" name="IALGO">    38</i>
   <i type="int" name="IWAVPR">    11</i>
   <i type="int" name="NBANDS">     8</i>
   <i name="NELECT">      8.00000000</i>
   <i type="int" name="TURBO">     0</i>
   <i type="int" name="IRESTART">     0</i>
   <i type="int" name="NREBOOT">     0</i>
   <i type="int" name="NMIN">     0</i>
   <i name="EREF">      0.00000000</i>
   <separator name="electronic smearing" >
    <i type="int" name="ISMEAR">     0</i>
    <i name="SIGMA">      0.01000000</i>
    <i name="KSPACING">      0.50000000</i>
    <i type="logical" name="KGAMMA"> T  </i>
   </separator>
   <separator name="electronic projectors" >
    <i type="logical" name="LREAL"> F  </i>
    <v name="ROPT">      0.00000000      0.00000000</v>
    <i type="int" name="LMAXPAW">  -100</i>
    <i type="int" name="LMAXMIX">     2</i>
    <i type="logical" name="NLSPLINE"> F  </i>
   </separator>
   <separator name="electronic startup" >
    <i type="int" name="ISTART">     0</i>
    <i type="int" name="ICHARG">     2</i>
    <i type="int" name="INIWAV">     1</i>
   </separator>
   <separator name="electronic spin" >
    <i type="int" name="ISPIN">     1</i>
    <i type="logical" name="LNONCOLLINEAR"> F  </i>
    <v name="MAGMOM">      1.00000000      1.00000000      1.00000000      1.00000000</v>
    <i name="NUPDOWN">     -1.00000000</i>
    <i type="logical" name="LSORBIT"> F  </i>
    <v name="SAXIS">      0.00000000      0.00000000      1.00000000</v>
    <i type="logical" name="LSPIRAL"> F  </i>
    <v name="QSPIRAL">      0.00000000      0.00000000      0.00000000</v>
    <i type="logical" name="LZEROZ"> F  </i>
   </separator>
   <separator name="electronic exchange-correlation" >
    <i type="logical" name="LASPH"> F  </i>
    <i type="logical" name="LMETAGGA"> F  </i>
   </separator>
   <separator name="electronic convergence" >
    <i type="int" name="NELM">    60</i>
    <i type="int" name="NELMDL">    -5</i>
    <i type="int" name="NELMIN">     2</i>
    <i name="ENINI">    350.00000000</i>
    <separator name="electronic convergence detail" >
     <i type="logical" name="LDIAG"> T  </i>
     <i type="logical" name="LSUBROT"> T  </i>
     <i name="WEIMIN">      0.00100000</i>
     <i name="EBREAK">      0.00000313</i>
     <i name="DEPER">      0.30000000</i>
     <i type="int" name="NRMM">     4</i>
     <i name="TIME">      0.40000000</i>
    </separator>
   </separator>
   <separator name="electronic mixer" >
    <i name="AMIX">      0.40000000</i>
    <i name="BMIX">      1.00000000</i>
    <i name="AMIN">      0.10000000</i>
    <i name="AMIX_MAG">      1.60000000</i>
    <i name="BMIX_MAG">      1.00000000</i>
    <separator name="electronic mixer details" >
     <i type="int" name="IMIX">     4</i>
     <i type="int" name="MAXMIX">   -45</i>
     <i name="WC">    100.00000000</i>
     <i type="int" name="INIMIX">     1</i>
     <i type="int" name="MIXPRE">     1</i>
     <i type="int" name="MREMOVE">     5</i>
    </separator>
   </separator>
   <separator name="electronic dipolcorrection" >
    <i type="logical" name="LDIPOL"> F  </i>
    <i type="logical" name="LMONO"> F  </i>
    <i type="int" name="IDIPOL">     0</i>
    <i name="EPSILON">      1.00000000</i>
    <v name="DIPOL">   -100.00000000   -100.00000000   -100.00000000</v>
    <i name="EFIELD">      0.00000000</i>
   </separator>
  </separator>
  <separator name="grids" >
   <i type="int" name="NGX">    40</i>
   <i type="int" name="NGY">    40</i>
   <i type="int" name="NGZ">    40</i>
   <i type="int" name="NGXF">    80</i>
   <i type="int" name="NGYF">    80</i>
   <i type="int" name="NGZF">    80</i>
   <i type="logical" name="ADDGRID"> F  </i>
  </separator>
  <separator name="ionic" >
   <i type="int" name="NSW">    50</i>
   <i type="int" name="IBRION">     1</i>
   <i type="int" name="ISIF">     2</i>
   <i name="PSTRESS">      0.00000000</i>
   <i name="EDIFFG">     -0.05000000</i>
   <i type="int" name="NFREE">     0</i>
   <i name="POTIM">      0.50000000</i>
   <i name="SMASS">     -3.00000000</i>
   <i name="SCALEE">      1.00000000</i>
  </separator>
  <separator name="ionic md" >
   <i name="TEBEG">      0.00010000</i>
   <i name="TEEND">      0.00010000</i>
   <i type="int" name="NBLOCK">     1</i>
   <i type="int" name="KBLOCK">    50</i>
   <i type="int" name="NPACO">   256</i>
   <i name="APACO">     16.00000000</i>
  </separator>
  <separator name="symmetry" >
   <i type="int" name="ISYM">     2</i>
   <i name="SYMPREC">      0.00001000</i>
  </separator>
  <separator name="dos" >
   <i type="logical" name="LORBIT"> F  </i>
   <v name="RWIGS">     -1.00000000     -1.00000000</v>
   <i type="int" name="NEDOS">   301</i>
   <i name="EMIN">     10.00000000</i>
   <i name="EMAX">    -10.00000000</i>
   <i name="EFERMI">      0.00000000</i>
  </separator>
  <separator name="writing" >
   <i type="int" name="NWRITE">     2</i>
   <i type="logical" name="LWAVE"> T  </i>
   <i type="logical" name="LCHARG"> T  </i>
   <i type="logical" name="LPARD"> F  </i>
   <i type="logical" name="LVTOT"> F  </i>
   <i type="logical" name="LVHAR"> F  </i>
   <i type="logical" name="LELF"> F  </i>
   <i type="logical" name="LOPTICS"> F  </i>
   <v name="STM">      0.00000000      0.00000000      0.00000000      0.00000000      0.00000000      0.00000000      0.00000000</v>
  </separator>
  <separator name="performance" >
   <i type="int" name="NPAR">     1</i>
   <i type="int" name="NSIM">     4</i>
   <i type="int" name="NBLK">    -1</i>
   <i type="logical" name="LPLANE"> T  </i>
   <i type="logical" name="LSCALAPACK"> F  </i>
   <i type="logical" name="LSCAAWARE"> F  </i>
   <i type="logical" name="LSCALU"> F  </i>
   <i type="logical" name="LASYNC"> F  </i>
   <i type="logical" name="LORBITALREAL"> F  </i>
  </separator>
  <separator name="miscellaneous" >
   <i type="int" name="IDIOT">     3</i>
   <i type="logical" name="LMUSIC"> F  </i>
   <v name="POMASS">      1.00000000     14.00100000</v>
   <v name="DARWINR">      0.00000000      0.00000000</v>
   <v name="DARWINV">      1.00000000      1.00000000</v>
   <i type="logical" name="LCORR"> T  </i>
  </separator>
  <i type="logical" name="GGA_COMPAT"> T  </i>
  <i type="logical" name="LBERRY"> F  </i>
  <i type="int" name="ICORELEVEL">     0</i>
  <i type="logical" name="LDAU"> F  </i>
  <i type="int" name="I_CONSTRAINED_M">     0</i>
  <separator name="electronic exchange-correlation" >
   <i type="string" name="GGA">--</i>
   <i type="int" name="VOSKOWN">     0</i>
   <i type="logical" name="LHFCALC"> F  </i>
   <i type="string" name="PRECFOCK"></i>
   <i type="logical" name="LHFONE"> F  </i>
   <i type="logical" name="LRHFCALC"> F  </i>
   <i type="logical" name="LTHOMAS"> F  </i>
   <i type="logical" name="LMODELHF"> F  </i>
   <i name="ENCUT4O">     -1.00000000</i>
   <i type="int" name="EXXOEP">     0</i>
   <i type="int" name="FOURORBIT">     0</i>
   <i name="AEXX">      0.00000000</i>
   <i name="HFALPHA">      0.00000000</i>
   <i name="ALDAX">      1.00000000</i>
   <i name="AGGAX">      1.00000000</i>
   <i name="ALDAC">      1.00000000</i>
   <i name="AGGAC">      1.00000000</i>
   <i type="int" name="NKREDX">     1</i>
   <i type="int" name="NKREDY">     1</i>
   <i type="int" name="NKREDZ">     1</i>
   <i type="logical" name="SHIFTRED"> F  </i>
   <i type="logical" name="ODDONLY"> F  </i>
   <i type="logical" name="EVENONLY"> F  </i>
   <i type="int" name="LMAXFOCK">     0</i>
   <i type="int" name="NMAXFOCKAE">     0</i>
   <i type="logical" name="LFOCKAEDFT"> F  </i>
   <i name="HFSCREEN">      0.00000000</i>
   <i name="HFSCREENC">      0.00000000</i>
  </separator>
  <separator name="vdW DFT" >
   <i type="logical" name="LUSE_VDW"> F  </i>
   <i name="Zab_VDW">     -0.84910000</i>
   <i name="PARAM1">      0.12340000</i>
   <i name="PARAM2">      1.00000000</i>
   <i name="PARAM3">      0.00000000</i>
  </separator>
  <separator name="model GW" >
   <i type="int" name="MODEL_GW">     0</i>
   <i name="MODEL_EPS0">     76.80000000</i>
   <i name="MODEL_ALPHA">      1.00000000</i>
  </separator>
  <separator name="linear response parameters" >
   <i type="logical" name="LEPSILON"> F  </i>
   <i type="logical" name="LRPA"> F  </i>
   <i type="logical" name="LNABLA"> F  </i>
   <i type="logical" name="LVEL"> F  </i>
   <i type="int" name="KINTER">     0</i>
   <i name="CSHIFT">      0.10000000</i>
   <i name="OMEGAMAX">     -1.00000000</i>
  </separator>
  <separator name="orbital magnetization" >
   <i type="logical" name="NUCIND"> F  </i>
   <v name="MAGPOS">      0.00000000      0.00000000      0.00000000</v>
   <i type="logical" name="LNICSALL"> T  </i>
   <i type="logical" name="ORBITALMAG"> F  </i>
   <i type="logical" name="LMAGBLOCH"> F  </i>
   <i type="logical" name="LCHIMAG"> F  </i>
   <i type="logical" name="LGAUGE"> T  </i>
   <i type="int" name="MAGATOM">     0</i>
   <v name="MAGDIPOL">      0.00000000      0.00000000      0.00000000</v>
   <v name="AVECCONST">      0.00000000      0.00000000      0.00000000</v>
  </separator>
  <separator name="response functions" >
   <i type="logical" name="LADDER"> F  </i>
   <i type="logical" name="LHARTREE"> T  </i>
   <i type="int" name="IBSE">     0</i>
   <i type="logical" name="LTCTE"> F  </i>
   <i type="logical" name="LTETE"> F  </i>
   <i type="logical" name="LFXCEPS"> F  </i>
   <i type="logical" name="L2ORDER"> F  </i>
   <i type="logical" name="LUSEW"> F  </i>
   <i name="ENCUTGW">     -2.00000000</i>
   <i name="ENCUTGWSOFT">     -2.00000000</i>
   <i name="ENCUTLF">     -1.00000000</i>
   <i type="int" name="LMAXMP2">    -1</i>
   <i name="SCISSOR">      0.00000000</i>
   <i type="int" name="NOMEGA">     0</i>
   <i type="int" name="NOMEGAR">     0</i>
   <i type="int" name="NBANDSGW">    -1</i>
   <i type="int" name="NBANDSO">    -1</i>
   <i type="int" name="NBANDSV">    -1</i>
   <i name="OPTEMAX">      0.00000000</i>
   <i type="int" name="NELM">     1</i>
   <i type="int" name="DIM">     3</i>
   <i type="int" name="ANTIRES">     0</i>
   <i name="OMEGAMAX">    -30.00000000</i>
   <i name="OMEGATL">   -200.00000000</i>
   <i type="int" name="OMEGAGRID">     0</i>
   <i name="CSHIFT">     -0.10000000</i>
   <i type="logical" name="SELFENERGY"> F  </i>
   <i type="logical" name="LSPECTRAL"> F  </i>
   <i type="logical" name="ODDONLYGW"> F  </i>
   <i type="logical" name="EVENONLYGW"> F  </i>
   <i type="int" name="NKREDLFX">     1</i>
   <i type="int" name="NKREDLFY">     1</i>
   <i type="int" name="NKREDLFZ">     1</i>
   <i type="int" name="MAXMEM">  1800</i>
   <i type="int" name="TELESCOPE">     0</i>
  </separator>
 </parameters>
 <atominfo>
  <atoms>       4 </atoms>
  <types>       2 </types>
  <array name="atoms" >
   <dimension dim="1">ion</dimension>
   <field type="string">element</field>
   <field type="int">atomtype</field>
   <set>
    <rc><c>H </c><c>   1</c></rc>
    <rc><c>H </c><c>   1</c></rc>
    <rc><c>H </c><c>   1</c></rc>
    <rc><c>N </c><c>   2</c></rc>
   </set>
  </array>
  <array name="atomtypes" >
   <dimension dim="1">type</dimension>
   <field type="int">atomspertype</field>
   <field type="string">element</field>
   <field>mass</field>
   <field>valence</field>
   <field type="string">pseudopotential</field>
   <set>
    <rc><c>   3</c><c>H </c><c>      1.00000000</c><c>      1.00000000</c><c> PAW_PBE H 15Jun2001                    </c></rc>
    <rc><c>   1</c><c>N </c><c>     14.00100000</c><c>      5.00000000</c><c> PAW_PBE N 08Apr2002                    </c></rc>
   </set>
  </array>
 </atominfo>
 <structure name="initialpos" >
  <crystal>
   <varray name="basis" >
    <v>       8.00000000       0.00000000       0.00000000 </v>
    <v>       0.00000000       8.00000000       0.00000000 </v>
    <v>       0.00000000       0.00000000       8.00000000 </v>
   </varray>
   <i name="volume">    512.00000000 </i>
   <varray name="rec_basis" >
    <v>       0.12500000       0.00000000       0.00000000 </v>
    <v>       0.00000000       0.12500000       0.00000000 </v>
    <v>       0.00000000       0.00000000       0.12500000 </v>
   </varray>
  </crystal>
  <varray name="positions" >
   <v>       0.50000000       0.58809975       0.47573144 </v>
   <v>       0.60172887       0.41190025       0.47573144 </v>
   <v>       0.39827113       0.41190025       0.47573144 </v>
   <v>       0.50000000       0.47063337       0.52426856 </v>
  </varray>
 </structure>
 <calculation>
  <scstep>
   <time name="dav">    0.35    0.35</time>
   <time name="total">    1.16    1.16</time>
   <energy>
    <i name="alphaZ">      0.45053036 </i>
    <i name="ewald">     76.93490327 </i>
    <i name="hartreedc">   -289.15212449 </i>
    <i name="XCdc">     26.77013337 </i>
    <i name="pawpsdc">    114.39100286 </i>
    <i name="pawaedc">   -115.79779708 </i>
    <i name="eentropy">      0.00000000 </i>
    <i name="bandstr">    -95.76130005 </i>
    <i name="atom">    301.72564990 </i>
    <i name="e_fr_energy">     19.56099815 </i>
    <i name="e_wo_entrp">     19.56099815 </i>
    <i name="e_0_energy">     19.56099815 </i>
   </energy>
  </scstep>
  <scstep>
   <time name="dav">    0.34    0.34</time>
   <time name="total">    0.34    0.34</time>
   <energy>
    <i name="e_fr_energy">    -20.53415666 </i>
    <i name="e_wo_entrp">    -20.53415666 </i>
    <i name="e_0_energy">    -20.53415666 </i>
   </energy>
  </scstep>
  <scstep>
   <time name="dav">    0.26    0.26</time>
   <time name="total">    0.26    0.27</time>
   <energy>
    <i name="e_fr_energy">    -22.42996652 </i>
    <i name="e_wo_entrp">    -22.42996652 </i>
    <i name="e_0_energy">    -22.42996652 </i>
   </energy>
  </scstep>
  <scstep>
   <time name="dav">    0.43    0.43</time>
   <time name="total">    0.43    0.45</time>
   <energy>
    <i name="e_fr_energy">    -22.44746092 </i>
    <i name="e_wo_entrp">    -22.44746092 </i>
    <i name="e_0_energy">    -22.44746092 </i>
   </energy>
  </scstep>
  <scstep>
   <time name="dav">    0.34    0.34</time>
   <time name="total">    0.45    0.46</time>
   <energy>
    <i name="e_fr_energy">    -22.44746228 </i>
    <i name="e_wo_entrp">    -22.44746228 </i>
    <i name="e_0_energy">    -22.44746228 </i>
   </energy>
  </scstep>
  <scstep>
   <time name="dav">    0.25    0.25</time>
   <time name="total">    1.15    1.20</time>
   <energy>
    <i name="e_fr_energy">    -19.74714925 </i>
    <i name="e_wo_entrp">    -19.74714925 </i>
    <i name="e_0_energy">    -19.74714925 </i>
   </energy>
  </scstep>
  <scstep>
   <time name="dav">    0.34    0.34</time>
   <time name="total">    1.23    1.24</time>
   <energy>
    <i name="e_fr_energy">    -19.53284556 </i>
    <i name="e_wo_entrp">    -19.53284556 </i>
    <i name="e_0_energy">    -19.53284556 </i>
   </energy>
  </scstep>
  <scstep>
   <time name="dav">    0.43    0.43</time>
   <time name="total">    1.31    1.34</time>
   <energy>
    <i name="e_fr_energy">    -19.40607096 </i>
    <i name="e_wo_entrp">    -19.40607096 </i>
    <i name="e_0_energy">    -19.40607096 </i>
   </energy>
  </scstep>
  <scstep>
   <time name="dav">    0.25    0.25</time>
   <time name="total">    1.13    1.14</time>
   <energy>
    <i name="e_fr_energy">    -19.40921881 </i>
    <i name="e_wo_entrp">    -19.40921881 </i>
    <i name="e_0_energy">    -19.40921881 </i>
   </energy>
  </scstep>
  <scstep>
   <time name="dav">    0.25    0.25</time>
   <time name="total">    1.11    1.17</time>
   <energy>
    <i name="e_fr_energy">    -19.41469519 </i>
    <i name="e_wo_entrp">    -19.41469519 </i>
    <i name="e_0_energy">    -19.41469519 </i>
   </energy>
  </scstep>
  <scstep>
   <time name="dav">    0.43    0.43</time>
   <time name="total">    1.29    1.30</time>
   <energy>
    <i name="e_fr_energy">    -19.42032495 </i>
    <i name="e_wo_entrp">    -19.42032495 </i>
    <i name="e_0_energy">    -19.42032495 </i>
   </energy>
  </scstep>
  <scstep>
   <time name="dav">    0.34    0.34</time>
   <time name="total">    1.18    1.20</time>
   <energy>
    <i name="e_fr_energy">    -19.42459417 </i>
    <i name="e_wo_entrp">    -19.42459417 </i>
    <i name="e_0_energy">    -19.42459417 </i>
   </energy>
  </scstep>
  <scstep>
   <time name="dav">    0.43    0.43</time>
   <time name="total">    1.28    1.33</time>
   <energy>
    <i name="e_fr_energy">    -19.42558610 </i>
    <i name="e_wo_entrp">    -19.42558610 </i>
    <i name="e_0_energy">    -19.42558610 </i>
   </energy>
  </scstep>
  <scstep>
   <time name="dav">    0.34    0.34</time>
   <time name="total">    1.18    1.20</time>
   <energy>
    <i name="e_fr_energy">    -19.42604861 </i>
    <i name="e_wo_entrp">    -19.42604861 </i>
    <i name="e_0_energy">    -19.42604861 </i>
   </energy>
  </scstep>
  <scstep>
   <time name="dav">    0.43    0.43</time>
   <time name="total">    1.29    1.30</time>
   <energy>
    <i name="e_fr_energy">    -19.42616595 </i>
    <i name="e_wo_entrp">    -19.42616595 </i>
    <i name="e_0_energy">    -19.42616595 </i>
   </energy>
  </scstep>
  <scstep>
   <time name="dav">    0.25    0.25</time>
   <time name="total">    1.00    1.01</time>
   <energy>
    <i name="alphaZ">      0.45053036 </i>
    <i name="ewald">     76.93490327 </i>
    <i name="hartreedc">   -327.67040399 </i>
    <i name="XCdc">     29.07966876 </i>
    <i name="pawpsdc">    179.45889786 </i>
    <i name="pawaedc">   -181.22709886 </i>
    <i name="eentropy">      0.00000000 </i>
    <i name="bandstr">    -98.17831869 </i>
    <i name="atom">    301.72564990 </i>
    <i name="e_fr_energy">    -19.42617139 </i>
    <i name="e_wo_entrp">    -19.42617139 </i>
    <i name="e_0_energy">    -19.42617139 </i>
   </energy>
  </scstep>
  <parameters_embedded>
   <separator name="dft+d2" >
    <i type="logical" name="LVDW"> F  </i>
   </separator>
  </parameters_embedded>
  <structure>
   <crystal>
    <varray name="basis" >
     <v>       8.00000000       0.00000000       0.00000000 </v>
     <v>       0.00000000       8.00000000       0.00000000 </v>
     <v>       0.00000000       0.00000000       8.00000000 </v>
    </varray>
    <i name="volume">    512.00000000 </i>
    <varray name="rec_basis" >
     <v>       0.12500000       0.00000000       0.00000000 </v>
     <v>       0.00000000       0.12500000       0.00000000 </v>
     <v>       0.00000000       0.00000000       0.12500000 </v>
    </varray>
   </crystal>
   <varray name="positions" >
    <v>       0.50000000       0.58809975       0.47573144 </v>
    <v>       0.60172887       0.41190025       0.47573144 </v>
    <v>       0.39827113       0.41190025       0.47573144 </v>
    <v>       0.50000000       0.47063337       0.52426856 </v>
   </varray>
  </structure>
  <varray name="forces" >
   <v>       0.00000000       0.38684073      -0.14626326 </v>
   <v>       0.33813252      -0.19473347      -0.15051866 </v>
   <v>      -0.33813252      -0.19473347      -0.15051866 </v>
   <v>       0.00000000       0.00262621       0.44730058 </v>
  </varray>
  <varray name="stress" >
   <v>      -4.17646890       0.00000000       0.00000000 </v>
   <v>       0.00000000      -4.17685400      -0.00105548 </v>
   <v>       0.00000000      -0.00105585      -5.70076757 </v>
  </varray>
  <energy>
   <i name="e_fr_energy">    -19.42617139 </i>
   <i name="e_wo_entrp">    -19.42617139 </i>
   <i name="e_0_energy">      0.00000000 </i>
  </energy>
  <time name="totalsc">   18.34   18.89</time>
 </calculation>
 <calculation>
  <scstep>
   <time name="dav">    0.25    0.25</time>
   <time name="total">    1.13    1.13</time>
   <energy>
    <i name="alphaZ">      0.45053036 </i>
    <i name="ewald">     70.69090289 </i>
    <i name="hartreedc">   -324.43302944 </i>
    <i name="XCdc">     28.91830180 </i>
    <i name="pawpsdc">    179.47030166 </i>
    <i name="pawaedc">   -181.23856676 </i>
    <i name="eentropy">      0.00000000 </i>
    <i name="bandstr">    -95.01205506 </i>
    <i name="atom">    301.72564990 </i>
    <i name="e_fr_energy">    -19.42796464 </i>
    <i name="e_wo_entrp">    -19.42796464 </i>
    <i name="e_0_energy">    -19.42796464 </i>
   </energy>
  </scstep>
  <scstep>
   <time name="dav">    0.34    0.34</time>
   <time name="total">    1.15    1.17</time>
   <energy>
    <i name="e_fr_energy">    -19.41666024 </i>
    <i name="e_wo_entrp">    -19.41666024 </i>
    <i name="e_0_energy">    -19.41666024 </i>
   </energy>
  </scstep>
  <scstep>
   <time name="dav">    0.33    0.34</time>
   <time name="total">    1.15    1.16</time>
   <energy>
    <i name="e_fr_energy">    -19.41584462 </i>
    <i name="e_wo_entrp">    -19.41584462 </i>
    <i name="e_0_energy">    -19.41584462 </i>
   </energy>
  </scstep>
  <scstep>
   <time name="dav">    0.42    0.42</time>
   <time name="total">    1.13    1.15</time>
   <energy>
    <i name="alphaZ">      0.45053036 </i>
    <i name="ewald">     70.69090289 </i>
    <i name="hartreedc">   -322.53412903 </i>
    <i name="XCdc">     28.80763213 </i>
    <i name="pawpsdc">    172.90465492 </i>
    <i name="pawaedc">   -174.63354773 </i>
    <i name="eentropy">      0.00000000 </i>
    <i name="bandstr">    -96.82751410 </i>
    <i name="atom">    301.72564990 </i>
    <i name="e_fr_energy">    -19.41582066 </i>
    <i name="e_wo_entrp">    -19.41582066 </i>
    <i name="e_0_energy">    -19.41582066 </i>
   </energy>
  </scstep>
  <structure>
   <crystal>
    <varray name="basis" >
     <v>       8.00000000       0.00000000       0.00000000 </v>
     <v>       0.00000000       8.00000000       0.00000000 </v>
     <v>       0.00000000       0.00000000       8.00000000 </v>
    </varray>
    <i name="volume">    512.00000000 </i>
    <varray name="rec_basis" >
     <v>       0.12500000       0.00000000       0.00000000 </v>
     <v>       0.00000000       0.12500000       0.00000000 </v>
     <v>       0.00000000       0.00000000       0.12500000 </v>
    </varray>
   </crystal>
   <varray name="positions" >
    <v>       0.50000000       0.59043253       0.47484942 </v>
    <v>       0.60376793       0.41072594       0.47482376 </v>
    <v>       0.39623207       0.41072594       0.47482376 </v>
    <v>       0.50000000       0.47064921       0.52696593 </v>
   </varray>
  </structure>
  <varray name="forces" >
   <v>       0.00000000      -0.57246475       0.23125489 </v>
   <v>      -0.50408813       0.29202745       0.23383279 </v>
   <v>       0.50408813       0.29202745       0.23383279 </v>
   <v>       0.00000000      -0.01159014      -0.69892047 </v>
  </varray>
  <varray name="stress" >
   <v>      -8.41019292       0.00000000       0.00000000 </v>
   <v>       0.00000000      -8.37972590      -0.01665214 </v>
   <v>       0.00000000      -0.01665209      -7.16830396 </v>
  </varray>
  <energy>
   <i name="e_fr_energy">    -19.41582066 </i>
   <i name="e_wo_entrp">    -19.41582066 </i>
   <i name="e_0_energy">      0.00000000 </i>
  </energy>
  <time name="totalsc">    6.09    7.40</time>
 </calculation>
 <calculation>
  <scstep>
   <time name="dav">    0.25    0.25</time>
   <time name="total">    1.07    1.07</time>
   <energy>
    <i name="alphaZ">      0.45053036 </i>
    <i name="ewald">     74.41818463 </i>
    <i name="hartreedc">   -324.40080573 </i>
    <i name="XCdc">     28.89944046 </i>
    <i name="pawpsdc">    172.52155742 </i>
    <i name="pawaedc">   -174.24778352 </i>
    <i name="eentropy">      0.00000000 </i>
    <i name="bandstr">    -98.80398553 </i>
    <i name="atom">    301.72564990 </i>
    <i name="e_fr_energy">    -19.43721202 </i>
    <i name="e_wo_entrp">    -19.43721202 </i>
    <i name="e_0_energy">    -19.43721202 </i>
   </energy>
  </scstep>
  <scstep>
   <time name="dav">    0.33    0.33</time>
   <time name="total">    1.19    1.23</time>
   <energy>
    <i name="e_fr_energy">    -19.43292468 </i>
    <i name="e_wo_entrp">    -19.43292468 </i>
    <i name="e_0_energy">    -19.43292468 </i>
   </energy>
  </scstep>
  <scstep>
   <time name="dav">    0.25    0.25</time>
   <time name="total">    1.12    1.13</time>
   <energy>
    <i name="e_fr_energy">    -19.43262624 </i>
    <i name="e_wo_entrp">    -19.43262624 </i>
    <i name="e_0_energy">    -19.43262624 </i>
   </energy>
  </scstep>
  <scstep>
   <time name="dav">    0.33    0.33</time>
   <time name="total">    1.11    1.16</time>
   <energy>
    <i name="alphaZ">      0.45053036 </i>
    <i name="ewald">     74.41818463 </i>
    <i name="hartreedc">   -325.56032514 </i>
    <i name="XCdc">     28.96715030 </i>
    <i name="pawpsdc">    176.37333016 </i>
    <i name="pawaedc">   -178.12300362 </i>
    <i name="eentropy">      0.00000000 </i>
    <i name="bandstr">    -97.68415873 </i>
    <i name="atom">    301.72564990 </i>
    <i name="e_fr_energy">    -19.43264213 </i>
    <i name="e_wo_entrp">    -19.43264213 </i>
    <i name="e_0_energy">    -19.43264213 </i>
   </energy>
  </scstep>
  <structure>
   <crystal>
    <varray name="basis" >
     <v>       8.00000000       0.00000000       0.00000000 </v>
     <v>       0.00000000       8.00000000       0.00000000 </v>
     <v>       0.00000000       0.00000000       8.00000000 </v>
    </varray>
    <i name="volume">    512.00000000 </i>
    <varray name="rec_basis" >
     <v>       0.12500000       0.00000000       0.00000000 </v>
     <v>       0.00000000       0.12500000       0.00000000 </v>
     <v>       0.00000000       0.00000000       0.12500000 </v>
    </varray>
   </crystal>
   <varray name="positions" >
    <v>       0.50000000       0.58906076       0.47540357 </v>
    <v>       0.60256000       0.41142571       0.47538408 </v>
    <v>       0.39744000       0.41142571       0.47538408 </v>
    <v>       0.50000000       0.47062144       0.52529114 </v>
   </varray>
  </structure>
  <varray name="forces" >
   <v>       0.00000000      -0.02842600       0.00945837 </v>
   <v>      -0.01839762       0.01046332       0.00354434 </v>
   <v>       0.01839762       0.01046332       0.00354434 </v>
   <v>       0.00000000       0.00749936      -0.01654704 </v>
  </varray>
  <varray name="stress" >
   <v>      -5.87464463       0.00000000       0.00000000 </v>
   <v>       0.00000000      -5.88101762       0.00464563 </v>
   <v>       0.00000000       0.00464581      -6.15779572 </v>
  </varray>
  <energy>
   <i name="e_fr_energy">    -19.43264213 </i>
   <i name="e_wo_entrp">    -19.43264213 </i>
   <i name="e_0_energy">      0.00000000 </i>
  </energy>
  <time name="totalsc">    5.94    6.38</time>
  <eigenvalues>
   <array>
    <dimension dim="1">band</dimension>
    <dimension dim="2">kpoint</dimension>
    <dimension dim="3">spin</dimension>
    <field>eigene</field>
    <field>occ</field>
    <set>
     <set comment="spin 1">
      <set comment="kpoint 1">
       <r>  -20.9341    1.0000 </r>
       <r>  -10.9615    1.0000 </r>
       <r>  -10.9602    1.0000 </r>
       <r>   -5.9863    1.0000 </r>
       <r>   -0.9460    0.0000 </r>
       <r>    1.3700    0.0000 </r>
       <r>    1.4444    0.0000 </r>
       <r>    1.4621    0.0000 </r>
      </set>
     </set>
    </set>
   </array>
  </eigenvalues>
  <separator name="orbital magnetization" >
   <v name="MAGDIPOLOUT">      0.00000000      0.00000000      0.00000000</v>
  </separator>
 </calculation>
 <structure name="finalpos" >
  <crystal>
   <varray name="basis" >
    <v>       8.00000000       0.00000000       0.00000000 </v>
    <v>       0.00000000       8.00000000       0.00000000 </v>
    <v>       0.00000000       0.00000000       8.00000000 </v>
   </varray>
   <i name="volume">    512.00000000 </i>
   <varray name="rec_basis" >
    <v>       0.12500000       0.00000000       0.00000000 </v>
    <v>       0.00000000       0.12500000       0.00000000 </v>
    <v>       0.00000000       0.00000000       0.12500000 </v>
   </varray>
  </crystal>
  <varray name="positions" >
   <v>       0.50000000       0.58906076       0.47540357 </v>
   <v>       0.60256000       0.41142571       0.47538408 </v>
   <v>       0.39744000       0.41142571       0.47538408 </v>
   <v>       0.50000000       0.47062144       0.52529114 </v>
  </varray>
 </structure>
</modeling>
