    3    3   50    1
  0.1706667E+03  0.8000000E-09  0.8000000E-09  0.8000000E-09  0.5000000E-15
  1.000000000000000E-004
  CAR 
 unknown system                          
   16    1    9
 
  0.0000000E+00  0.0000000E+00  0.0000000E+00  0.1000000E+01
   1      -28.786133
   2      -27.772441
   3      -13.387808
   4      -12.222211
   5      -12.222211
   6      -12.176470
   7       -8.644163
   8       -8.644163
   9       -0.871673
