       N       E                     dE             d eps       ncg     rms          rms(c)
DAV:   1     0.110016437313E+03    0.11002E+03   -0.46569E+03    26   0.791E+02
DAV:   2    -0.124655818808E+02   -0.12248E+03   -0.12217E+03    35   0.210E+02
DAV:   3    -0.241616296651E+02   -0.11696E+02   -0.11695E+02    20   0.903E+01
DAV:   4    -0.245133836070E+02   -0.35175E+00   -0.35165E+00    28   0.156E+01
DAV:   5    -0.245152506579E+02   -0.18671E-02   -0.18671E-02    18   0.120E+00    0.791E+00
DAV:   6    -0.231239898817E+02    0.13913E+01   -0.81761E+00    20   0.242E+01    0.348E+00
DAV:   7    -0.230071389046E+02    0.11685E+00   -0.22114E-01    27   0.592E+00    0.195E+00
DAV:   8    -0.229529315567E+02    0.54207E-01   -0.23813E-01    19   0.479E+00    0.389E-01
DAV:   9    -0.229504428704E+02    0.24887E-02   -0.91350E-03    18   0.108E+00    0.264E-01
DAV:  10    -0.229519215843E+02   -0.14787E-02   -0.29898E-02    18   0.143E+00    0.194E-01
DAV:  11    -0.229538031532E+02   -0.18816E-02   -0.59447E-03    27   0.732E-01    0.661E-02
DAV:  12    -0.229569754297E+02   -0.31723E-02   -0.94911E-04    18   0.280E-01    0.312E-02
DAV:  13    -0.229584126634E+02   -0.14372E-02   -0.46440E-04    19   0.189E-01    0.339E-02
DAV:  14    -0.229590716535E+02   -0.65899E-03   -0.39436E-04    19   0.180E-01    0.721E-03
DAV:  15    -0.229591554834E+02   -0.83830E-04   -0.46637E-05    11   0.789E-02
   1 F= -.22959155E+02 E0= -.22959155E+02  d E =-.229592E+02
       N       E                     dE             d eps       ncg     rms          rms(c)
DAV:   1    -0.229544942732E+02    0.45774E-02   -0.86645E-01    18   0.122E+01    0.293E-01
DAV:   2    -0.229550120347E+02   -0.51776E-03   -0.23517E-02    20   0.170E+00    0.127E-01
DAV:   3    -0.229546246133E+02    0.38742E-03   -0.10093E-03    27   0.336E-01    0.660E-02
DAV:   4    -0.229545785380E+02    0.46075E-04   -0.76590E-04    19   0.288E-01
   2 F= -.22954579E+02 E0= -.22954579E+02  d E =0.457695E-02
       N       E                     dE             d eps       ncg     rms          rms(c)
DAV:   1    -0.229595773902E+02   -0.49528E-02   -0.54811E-01    19   0.966E+00    0.235E-01
DAV:   2    -0.229598580504E+02   -0.28066E-03   -0.14908E-02    20   0.135E+00    0.968E-02
DAV:   3    -0.229596113235E+02    0.24673E-03   -0.63638E-04    27   0.266E-01    0.494E-02
DAV:   4    -0.229595791383E+02    0.32185E-04   -0.47608E-04    19   0.224E-01
   3 F= -.22959579E+02 E0= -.22959579E+02  d E =-.500060E-02
