 vasp.5.2.12 11Nov11 complex                                                    
  
 executed on             LinuxIFC date 2012.10.11  21:14:37
 running on    1 nodes
 distr:  one band on    1 nodes,    1 groups


--------------------------------------------------------------------------------------------------------


 INCAR:
 POTCAR:   PAW_PBE C 08Apr2002                    
 POTCAR:   PAW_PBE O 08Apr2002                    
 POTCAR:   PAW_PBE C 08Apr2002                    
   VRHFIN =C: s2p2                                                              
   LEXCH  = PE                                                                  
   EATOM  =   147.1560 eV,   10.8157 Ry                                         
                                                                                
   TITEL  = PAW_PBE C 08Apr2002                                                 
   LULTRA =        F    use ultrasoft PP ?                                      
   IUNSCR =        0    unscreen: 0-lin 1-nonlin 2-no                           
   RPACOR =     .000    partial core radius                                     
   POMASS =   12.011; ZVAL   =    4.000    mass and valenz                      
   RCORE  =    1.500    outmost cutoff radius                                   
   RWIGS  =    1.630; RWIGS  =     .863    wigner-seitz radius (au A)           
   ENMAX  =  400.000; ENMIN  =  300.000 eV                                      
   ICORE  =        2    local potential                                         
   LCOR   =        T    correct aug charges                                     
   LPAW   =        T    paw PP                                                  
   EAUG   =  644.873                                                            
   DEXC   =     .000                                                            
   RMAX   =    2.266    core radius for proj-oper                               
   RAUG   =    1.300    factor for augmentation sphere                          
   RDEP   =    1.501    radius for radial grids                                 
   RDEPT  =    1.300    core radius for aug-charge                              
   QCUT   =   -5.516; QGAM   =   11.032    optimization parameters              
                                                                                
   Description                                                                  
     l     E      TYP  RCUT    TYP  RCUT                                        
     0   .000     23  1.200                                                     
     0   .000     23  1.200                                                     
     1   .000     23  1.500                                                     
     1  2.500     23  1.500                                                     
     2   .000      7  1.500                                                     
  local pseudopotential read in
  atomic valenz-charges read in
  non local Contribution for L=           0  read in
    real space projection operators read in
  non local Contribution for L=           0  read in
    real space projection operators read in
  non local Contribution for L=           1  read in
    real space projection operators read in
  non local Contribution for L=           1  read in
    real space projection operators read in
    PAW grid and wavefunctions read in
 
   number of l-projection  operators is LMAX  =           4
   number of lm-projection operators is LMMAX =           8
 
 POTCAR:   PAW_PBE O 08Apr2002                    
   VRHFIN =O: s2p4                                                              
   LEXCH  = PE                                                                  
   EATOM  =   432.3788 eV,   31.7789 Ry                                         
                                                                                
   TITEL  = PAW_PBE O 08Apr2002                                                 
   LULTRA =        F    use ultrasoft PP ?                                      
   IUNSCR =        0    unscreen: 0-lin 1-nonlin 2-no                           
   RPACOR =     .000    partial core radius                                     
   POMASS =   16.000; ZVAL   =    6.000    mass and valenz                      
   RCORE  =    1.520    outmost cutoff radius                                   
   RWIGS  =    1.550; RWIGS  =     .820    wigner-seitz radius (au A)           
   ENMAX  =  400.000; ENMIN  =  300.000 eV                                      
   ICORE  =        2    local potential                                         
   LCOR   =        T    correct aug charges                                     
   LPAW   =        T    paw PP                                                  
   EAUG   =  605.392                                                            
   DEXC   =     .000                                                            
   RMAX   =    2.264    core radius for proj-oper                               
   RAUG   =    1.300    factor for augmentation sphere                          
   RDEP   =    1.550    radius for radial grids                                 
   QCUT   =   -5.520; QGAM   =   11.041    optimization parameters              
                                                                                
   Description                                                                  
     l     E      TYP  RCUT    TYP  RCUT                                        
     0   .000     23  1.200                                                     
     0  -.700     23  1.200                                                     
     1   .000     23  1.520                                                     
     1   .600     23  1.520                                                     
     2   .000      7  1.500                                                     
  local pseudopotential read in
  atomic valenz-charges read in
  non local Contribution for L=           0  read in
    real space projection operators read in
  non local Contribution for L=           0  read in
    real space projection operators read in
  non local Contribution for L=           1  read in
    real space projection operators read in
  non local Contribution for L=           1  read in
    real space projection operators read in
    PAW grid and wavefunctions read in
 
   number of l-projection  operators is LMAX  =           4
   number of lm-projection operators is LMMAX =           8
 
 PAW_PBE C 08Apr2002                    :
 energy of atom  1       EATOM= -147.1560
 kinetic energy error for atom=    0.0854 (will be added to EATOM!!)
 PAW_PBE O 08Apr2002                    :
 energy of atom  2       EATOM= -432.3788
 kinetic energy error for atom=    0.3782 (will be added to EATOM!!)
 
 
 POSCAR:  C  O                                   
  positions in cartesian coordinates
  No initial velocities read in
 exchange correlation table for  LEXCH =        8
   RHO(1)=    0.500       N(1)  =     2000
   RHO(2)=  100.500       N(2)  =     4000
 


--------------------------------------------------------------------------------------------------------


 ion  position               nearest neighbor table
   1  0.500  0.500  0.500-   2 1.18   3 1.18
   2  0.500  0.500  0.647-   1 1.18
   3  0.500  0.500  0.353-   1 1.18
 
  LATTYP: Found a simple cubic cell.
 ALAT       =     8.0000000000
  
  Lattice vectors:
  
 A1 = (   8.0000000000,   0.0000000000,   0.0000000000)
 A2 = (   0.0000000000,   8.0000000000,   0.0000000000)
 A3 = (   0.0000000000,   0.0000000000,   8.0000000000)
 Subroutine PRICEL returns:
 Original cell was already a primitive cell.
 

Analysis of symmetry for initial positions (statically):

 Routine SETGRP: Setting up the symmetry group for a 
 simple cubic supercell.


 Subroutine GETGRP returns: Found 16 space group operations
 (whereof 16 operations were pure point group operations)
 out of a pool of 48 trial point group operations.


The static configuration has the point symmetry D_4h.

Analysis of symmetry for dynamics (positions and initial velocities):

 Subroutine DYNSYM returns: Found 16 space group operations
 (whereof 16 operations were pure point group operations)
 out of a pool of 16 trial space group operations
 (whereof 16 operations were pure point group operations)
 and found also     1 'primitive' translations


The dynamic configuration has the point symmetry D_4h.
 
 
 KPOINTS: KPOINTS created by Atomic Simulation Env

Automatic generation of k-mesh.
 
 Subroutine IBZKPT returns following result:
 ===========================================
 
 Found      1 irreducible k-points:
 
 Following reciprocal coordinates:
            Coordinates               Weight
  0.000000  0.000000  0.000000      1.000000
 
 Following cartesian coordinates:
            Coordinates               Weight
  0.000000  0.000000  0.000000      1.000000
 


--------------------------------------------------------------------------------------------------------




 Dimension of arrays:
   k-points           NKPTS =      1   k-points in BZ     NKDIM =      1   number of bands    NBANDS=      9
   number of dos      NEDOS =    301   number of ions     NIONS =      3
   non local maximal  LDIM  =      4   non local SUM 2l+1 LMDIM =      8
   total plane-waves  NPLWV =  64000
   max r-space proj   IRMAX =      1   max aug-charges    IRDMAX=   1821
   dimension x,y,z NGX =    40 NGY =   40 NGZ =   40
   dimension x,y,z NGXF=    80 NGYF=   80 NGZF=   80
   support grid    NGXF=    80 NGYF=   80 NGZF=   80
   ions per type =               1   2
 NGX,Y,Z   is equivalent  to a cutoff of   8.31,  8.31,  8.31 a.u.
 NGXF,Y,Z  is equivalent  to a cutoff of  16.62, 16.62, 16.62 a.u.


 I would recommend the setting:
   dimension x,y,z NGX =    37 NGY =   37 NGZ =   37
 SYSTEM =  unknown system                          
 POSCAR =   C  O                                   

 Startparameter for this run:
   NWRITE =      2    write-flag & timer
   PREC   = normal    normal or accurate (medium, high low for compatibility)
   ISTART =      0    job   : 0-new  1-cont  2-samecut
   ICHARG =      2    charge: 1-file 2-atom 10-const
   ISPIN  =      1    spin polarized calculation?
   LNONCOLLINEAR =      F non collinear calculations
   LSORBIT =      F    spin-orbit coupling
   INIWAV =      1    electr: 0-lowe 1-rand  2-diag
   LASPH  =      F    aspherical Exc in radial PAW
   METAGGA=      F    non-selfconsistent MetaGGA calc.

 Electronic Relaxation 1
   ENCUT  =  350.0 eV  25.72 Ry    5.07 a.u.  12.20 12.20 12.20*2*pi/ulx,y,z
   ENINI  =  350.0     initial cutoff
   ENAUG  =  644.9 eV  augmentation charge cutoff
   NELM   =     60;   NELMIN=  2; NELMDL= -5     # of ELM steps 
   EDIFF  = 0.1E-03   stopping-criterion for ELM
   LREAL  =      F    real-space projection
   NLSPLINE    = F    spline interpolate recip. space projectors
   LCOMPAT=      F    compatible to vasp.4.4
   GGA_COMPAT  = T    GGA compatible to vasp.4.4-vasp.4.6
   LMAXPAW     = -100 max onsite density
   LMAXMIX     =    2 max onsite mixed and CHGCAR
   VOSKOWN=      0    Vosko Wilk Nusair interpolation
   ROPT   =    0.00000   0.00000
 Ionic relaxation
   EDIFFG = -.5E-01   stopping-criterion for IOM
   NSW    =     50    number of steps for IOM
   NBLOCK =      1;   KBLOCK =     50    inner block; outer block 
   IBRION =      1    ionic relax: 0-MD 1-quasi-New 2-CG
   NFREE  =      0    steps in history (QN), initial steepest desc. (CG)
   ISIF   =      2    stress and relaxation
   IWAVPR =     11    prediction:  0-non 1-charg 2-wave 3-comb
   ISYM   =      2    0-nonsym 1-usesym 2-fastsym
   LCORR  =      T    Harris-Foulkes like correction to forces

   POTIM  = 0.5000    time-step for ionic-motion
   TEIN   =    0.0    initial temperature
   TEBEG  =    0.0;   TEEND  =   0.0 temperature during run
   SMASS  =  -3.00    Nose mass-parameter (am)
   estimated Nose-frequenzy (Omega)   =  0.10E-29 period in steps =****** mass=  -0.146E-26a.u.
   SCALEE = 1.0000    scale energy and forces
   NPACO  =    256;   APACO  = 16.0  distance and # of slots for P.C.
   PSTRESS=    0.0 pullay stress

  Mass of Ions in am
   POMASS =  12.01 16.00
  Ionic Valenz
   ZVAL   =   4.00  6.00
  Atomic Wigner-Seitz radii
   RWIGS  =  -1.00 -1.00
  virtual crystal weights 
   VCA    =   1.00  1.00
   NELECT =      16.0000    total number of electrons
   NUPDOWN=      -1.0000    fix difference up-down

 DOS related values:
   EMIN   =  10.00;   EMAX   =-10.00  energy-range for DOS
   EFERMI =   0.00
   ISMEAR =     0;   SIGMA  =   0.01  broadening in eV -4-tet -1-fermi 0-gaus

 Electronic relaxation 2 (details)
   IALGO  =     38    algorithm
   LDIAG  =      T    sub-space diagonalisation (order eigenvalues)
   LSUBROT=      T    optimize rotation matrix (better conditioning)
   TURBO    =      0    0=normal 1=particle mesh
   IRESTART =      0    0=no restart 2=restart with 2 vectors
   NREBOOT  =      0    no. of reboots
   NMIN     =      0    reboot dimension
   EREF     =   0.00    reference energy to select bands
   IMIX   =      4    mixing-type and parameters
     AMIX     =   0.40;   BMIX     =  1.00
     AMIX_MAG =   1.60;   BMIX_MAG =  1.00
     AMIN     =   0.10
     WC   =   100.;   INIMIX=   1;  MIXPRE=   1

 Intra band minimization:
   WEIMIN = 0.0010     energy-eigenvalue tresh-hold
   EBREAK =  0.28E-05  absolut break condition
   DEPER  =   0.30     relativ break condition  

   TIME   =   0.40     timestep for ELM

  volume/ion in A,a.u.               =     170.67      1151.72
  Fermi-wavevector in a.u.,A,eV,Ry     =   0.515654  0.974444  3.617773  0.265899
  Thomas-Fermi vector in A             =   1.531204
 
 Write flags
   LWAVE  =      T    write WAVECAR
   LCHARG =      T    write CHGCAR
   LVTOT  =      F    write LOCPOT, total local potential
   LVHAR  =      F    write LOCPOT, Hartree potential only
   LELF   =      F    write electronic localiz. function (ELF)
   LORBIT =      0    0 simple, 1 ext, 2 COOP (PROOUT)


 Dipole corrections
   LMONO  =      F    monopole corrections only (constant potential shift)
   LDIPOL =      F    correct potential (dipole corrections)
   IDIPOL =      0    1-x, 2-y, 3-z, 4-all directions 
   EPSILON=  1.0000000 bulk dielectric constant

 Exchange correlation treatment:
   GGA     =    --    GGA type
   LEXCH   =     8    internal setting for exchange type
   VOSKOWN=      0    Vosko Wilk Nusair interpolation
   LHFCALC =     F    Hartree Fock is set to
   LHFONE  =     F    Hartree Fock one center treatment
   AEXX    =    0.0000 exact exchange contribution

 Linear response parameters
   LEPSILON=     F    determine dielectric tensor
   LRPA    =     F    only Hartree local field effects (RPA)
   LNABLA  =     F    use nabla operator in PAW spheres
   LVEL    =     F    velocity operator in full k-point grid
   LINTERFAST=   F  fast interpolation
   KINTER  =     0    interpolate to denser k-point grid
   CSHIFT  =0.1000    complex shift for real part using Kramers Kronig
   OMEGAMAX=  -1.0    maximum frequency
   RTIME   =    0.100 relaxation time in fs

 Orbital magnetization related:
   ORBITALMAG=     F  switch on orbital magnetization
   LCHIMAG   =     F  perturbation theory with respect to B field
   DQ        =  0.001000  dq finite difference perturbation B field



--------------------------------------------------------------------------------------------------------


 quasi-Newton-method for relaxation of ions
 charge density and potential will be updated during run
 non-spin polarized calculation
 Variant of blocked Davidson
 Davidson routine will perform the subspace rotation
 perform sub-space diagonalisation
    after iterative eigenvector-optimisation
 modified Broyden-mixing scheme, WC =      100.0
 initial mixing is a Kerker type mixing with AMIX =  0.4000 and BMIX =      1.0000
 Hartree-type preconditioning will be used
 using additional bands            1
 reciprocal scheme for non local part
 calculate Harris-corrections to forces 
   (improved forces if not selfconsistent)
 use gradient corrections 
 use of overlap-Matrix (Vanderbilt PP)
 Gauss-broadening in eV      SIGMA  =   0.01


--------------------------------------------------------------------------------------------------------


  energy-cutoff  :      350.00
  volume of cell :      512.00
      direct lattice vectors                 reciprocal lattice vectors
     8.000000000  0.000000000  0.000000000     0.125000000  0.000000000  0.000000000
     0.000000000  8.000000000  0.000000000     0.000000000  0.125000000  0.000000000
     0.000000000  0.000000000  8.000000000     0.000000000  0.000000000  0.125000000

  length of vectors
     8.000000000  8.000000000  8.000000000     0.125000000  0.125000000  0.125000000


 
 k-points in units of 2pi/SCALE and weight: KPOINTS created by Atomic Simulation Env
   0.00000000  0.00000000  0.00000000       1.000
 
 k-points in reciprocal lattice and weights: KPOINTS created by Atomic Simulation Env
   0.00000000  0.00000000  0.00000000       1.000
 
 position of ions in fractional coordinates (direct lattice) 
   0.50000000  0.50000000  0.50000000
   0.50000000  0.50000000  0.64733225
   0.50000000  0.50000000  0.35266775
 
 position of ions in cartesian coordinates  (Angst):
   4.00000000  4.00000000  4.00000000
   4.00000000  4.00000000  5.17865800
   4.00000000  4.00000000  2.82134200
 


--------------------------------------------------------------------------------------------------------


 k-point  1 :  0.00000.00000.0000  plane waves:    7521

 maximum and minimum number of plane-waves per node :      7521     7521

 maximum number of plane-waves:      7521
 maximum index in each direction: 
   IXMAX=   12   IYMAX=   12   IZMAX=   12
   IXMIN=  -12   IYMIN=  -12   IZMIN=  -12

 WARNING: aliasing errors must be expected set NGX to  50 to avoid them
 WARNING: aliasing errors must be expected set NGY to  50 to avoid them
 WARNING: aliasing errors must be expected set NGZ to  50 to avoid them
 aliasing errors are usually negligible using standard VASP settings
 and one can safely disregard these warnings

 serial   3D FFT for wavefunctions
 parallel 3D FFT for charge:
    minimum data exchange during FFTs selected (reduces bandwidth)


 total amount of memory used by VASP on root node    82051. kBytes
========================================================================

   base      :      30000. kBytes
   nonl-proj :       1323. kBytes
   fftplans  :      17864. kBytes
   grid      :      31769. kBytes
   one-center:          9. kBytes
   wavefun   :       1086. kBytes
 
 Broyden mixing: mesh for mixing (old mesh)
   NGX = 25   NGY = 25   NGZ = 25
  (NGX  = 80   NGY  = 80   NGZ  = 80)
  gives a total of  15625 points

 initial charge density was supplied:
 charge density of overlapping atoms calculated
 number of electron      16.0000000 magnetization 
 keeping initial charge density in first step


--------------------------------------------------------------------------------------------------------


 Maximum index for augmentation-charges         1579 (set IRDMAX)


--------------------------------------------------------------------------------------------------------


 First call to EWALD:  gamma=   0.222
 Maximum number of real-space cells 3x 3x 3
 Maximum number of reciprocal cells 3x 3x 3

    FEWALD:  cpu time    0.00: real time    0.00


----------------------------------------- Iteration    1(   1)  ---------------------------------------


    POTLOK:  cpu time    0.92: real time    0.92
    SETDIJ:  cpu time    0.01: real time    0.01
     EDDAV:  cpu time    0.40: real time    0.40
       DOS:  cpu time    0.00: real time    0.00
    --------------------------------------------
      LOOP:  cpu time    1.33: real time    1.33

 eigenvalue-minimisations  :    26
 total energy-change (2. order) : 0.1100164E+03  (-0.4656943E+03)
 number of electron      16.0000000 magnetization 
 augmentation part       16.0000000 magnetization 

 Free energy of the ion-electron system (eV)
  ---------------------------------------------------
  alpha Z        PSCENC =         2.08377909
  Ewald energy   TEWEN  =       170.01906707
  -1/2 Hartree   DENC   =      -986.67340058
  -exchange  EXHF       =         0.00000000
  -V(xc)+E(xc)   XCENC  =        68.20544515
  PAW double counting   =       529.82824833     -534.67809926
  entropy T*S    EENTRO =         0.00000000
  eigenvalues    EBANDS =      -149.84044745
  atomic energy  EATOM  =      1011.07184495
  ---------------------------------------------------
  free energy    TOTEN  =       110.01643731 eV

  energy without entropy =      110.01643731  energy(sigma->0) =      110.01643731


--------------------------------------------------------------------------------------------------------




----------------------------------------- Iteration    1(   2)  ---------------------------------------


     EDDAV:  cpu time    0.51: real time    0.51
       DOS:  cpu time    0.00: real time    0.00
    --------------------------------------------
      LOOP:  cpu time    0.51: real time    0.51

 eigenvalue-minimisations  :    35
 total energy-change (2. order) :-0.1224820E+03  (-0.1221689E+03)
 number of electron      16.0000000 magnetization 
 augmentation part       16.0000000 magnetization 

 Free energy of the ion-electron system (eV)
  ---------------------------------------------------
  alpha Z        PSCENC =         2.08377909
  Ewald energy   TEWEN  =       170.01906707
  -1/2 Hartree   DENC   =      -986.67340058
  -exchange  EXHF       =         0.00000000
  -V(xc)+E(xc)   XCENC  =        68.20544515
  PAW double counting   =       529.82824833     -534.67809926
  entropy T*S    EENTRO =         0.00000000
  eigenvalues    EBANDS =      -272.32246664
  atomic energy  EATOM  =      1011.07184495
  ---------------------------------------------------
  free energy    TOTEN  =       -12.46558188 eV

  energy without entropy =      -12.46558188  energy(sigma->0) =      -12.46558188


--------------------------------------------------------------------------------------------------------




----------------------------------------- Iteration    1(   3)  ---------------------------------------


     EDDAV:  cpu time    0.34: real time    0.34
       DOS:  cpu time    0.00: real time    0.00
    --------------------------------------------
      LOOP:  cpu time    0.34: real time    0.37

 eigenvalue-minimisations  :    20
 total energy-change (2. order) :-0.1169605E+02  (-0.1169520E+02)
 number of electron      16.0000000 magnetization 
 augmentation part       16.0000000 magnetization 

 Free energy of the ion-electron system (eV)
  ---------------------------------------------------
  alpha Z        PSCENC =         2.08377909
  Ewald energy   TEWEN  =       170.01906707
  -1/2 Hartree   DENC   =      -986.67340058
  -exchange  EXHF       =         0.00000000
  -V(xc)+E(xc)   XCENC  =        68.20544515
  PAW double counting   =       529.82824833     -534.67809926
  entropy T*S    EENTRO =         0.00000000
  eigenvalues    EBANDS =      -284.01851442
  atomic energy  EATOM  =      1011.07184495
  ---------------------------------------------------
  free energy    TOTEN  =       -24.16162967 eV

  energy without entropy =      -24.16162967  energy(sigma->0) =      -24.16162967


--------------------------------------------------------------------------------------------------------




----------------------------------------- Iteration    1(   4)  ---------------------------------------


     EDDAV:  cpu time    0.43: real time    0.43
       DOS:  cpu time    0.00: real time    0.00
    --------------------------------------------
      LOOP:  cpu time    0.44: real time    0.45

 eigenvalue-minimisations  :    28
 total energy-change (2. order) :-0.3517539E+00  (-0.3516506E+00)
 number of electron      16.0000000 magnetization 
 augmentation part       16.0000000 magnetization 

 Free energy of the ion-electron system (eV)
  ---------------------------------------------------
  alpha Z        PSCENC =         2.08377909
  Ewald energy   TEWEN  =       170.01906707
  -1/2 Hartree   DENC   =      -986.67340058
  -exchange  EXHF       =         0.00000000
  -V(xc)+E(xc)   XCENC  =        68.20544515
  PAW double counting   =       529.82824833     -534.67809926
  entropy T*S    EENTRO =         0.00000000
  eigenvalues    EBANDS =      -284.37026837
  atomic energy  EATOM  =      1011.07184495
  ---------------------------------------------------
  free energy    TOTEN  =       -24.51338361 eV

  energy without entropy =      -24.51338361  energy(sigma->0) =      -24.51338361


--------------------------------------------------------------------------------------------------------




----------------------------------------- Iteration    1(   5)  ---------------------------------------


     EDDAV:  cpu time    0.31: real time    0.31
       DOS:  cpu time    0.00: real time    0.00
    CHARGE:  cpu time    0.13: real time    0.14
    MIXING:  cpu time    0.03: real time    0.03
    --------------------------------------------
      LOOP:  cpu time    0.47: real time    0.49

 eigenvalue-minimisations  :    18
 total energy-change (2. order) :-0.1867051E-02  (-0.1867050E-02)
 number of electron      16.0000160 magnetization 
 augmentation part        1.4675397 magnetization 

 Broyden mixing:
  rms(total) = 0.79122E+00    rms(broyden)= 0.78837E+00
  rms(prec ) = 0.11276E+01
  weight for this iteration     100.00

 Free energy of the ion-electron system (eV)
  ---------------------------------------------------
  alpha Z        PSCENC =         2.08377909
  Ewald energy   TEWEN  =       170.01906707
  -1/2 Hartree   DENC   =      -986.67340058
  -exchange  EXHF       =         0.00000000
  -V(xc)+E(xc)   XCENC  =        68.20544515
  PAW double counting   =       529.82824833     -534.67809926
  entropy T*S    EENTRO =         0.00000000
  eigenvalues    EBANDS =      -284.37213542
  atomic energy  EATOM  =      1011.07184495
  ---------------------------------------------------
  free energy    TOTEN  =       -24.51525066 eV

  energy without entropy =      -24.51525066  energy(sigma->0) =      -24.51525066


--------------------------------------------------------------------------------------------------------




----------------------------------------- Iteration    1(   6)  ---------------------------------------


    POTLOK:  cpu time    0.90: real time    0.90
    SETDIJ:  cpu time    0.01: real time    0.01
     EDDAV:  cpu time    0.38: real time    0.38
       DOS:  cpu time    0.00: real time    0.00
    CHARGE:  cpu time    0.12: real time    0.12
    MIXING:  cpu time    0.03: real time    0.03
    --------------------------------------------
      LOOP:  cpu time    1.44: real time    1.56

 eigenvalue-minimisations  :    20
 total energy-change (2. order) : 0.1391261E+01  (-0.8176051E+00)
 number of electron      16.0000136 magnetization 
 augmentation part        1.2967606 magnetization 

 Broyden mixing:
  rms(total) = 0.34781E+00    rms(broyden)= 0.34732E+00
  rms(prec ) = 0.42836E+00
  weight for this iteration     100.00

 eigenvalues of (default mixing * dielectric matrix)
  average eigenvalue GAMMA=   0.9514
  0.9514

 Free energy of the ion-electron system (eV)
  ---------------------------------------------------
  alpha Z        PSCENC =         2.08377909
  Ewald energy   TEWEN  =       170.01906707
  -1/2 Hartree   DENC   =     -1010.87073653
  -exchange  EXHF       =         0.00000000
  -V(xc)+E(xc)   XCENC  =        69.67657344
  PAW double counting   =       623.08890965     -628.19105245
  entropy T*S    EENTRO =         0.00000000
  eigenvalues    EBANDS =      -260.00237509
  atomic energy  EATOM  =      1011.07184495
  ---------------------------------------------------
  free energy    TOTEN  =       -23.12398988 eV

  energy without entropy =      -23.12398988  energy(sigma->0) =      -23.12398988


--------------------------------------------------------------------------------------------------------




----------------------------------------- Iteration    1(   7)  ---------------------------------------


    POTLOK:  cpu time    0.86: real time    0.86
    SETDIJ:  cpu time    0.01: real time    0.01
     EDDAV:  cpu time    0.42: real time    0.42
       DOS:  cpu time    0.00: real time    0.00
    CHARGE:  cpu time    0.12: real time    0.12
    MIXING:  cpu time    0.03: real time    0.03
    --------------------------------------------
      LOOP:  cpu time    1.45: real time    1.70

 eigenvalue-minimisations  :    27
 total energy-change (2. order) : 0.1168510E+00  (-0.2211435E-01)
 number of electron      16.0000138 magnetization 
 augmentation part        1.3154753 magnetization 

 Broyden mixing:
  rms(total) = 0.19544E+00    rms(broyden)= 0.19543E+00
  rms(prec ) = 0.24772E+00
  weight for this iteration     100.00

 eigenvalues of (default mixing * dielectric matrix)
  average eigenvalue GAMMA=   1.6520
  0.9294  2.3745

 Free energy of the ion-electron system (eV)
  ---------------------------------------------------
  alpha Z        PSCENC =         2.08377909
  Ewald energy   TEWEN  =       170.01906707
  -1/2 Hartree   DENC   =     -1015.03868149
  -exchange  EXHF       =         0.00000000
  -V(xc)+E(xc)   XCENC  =        69.84697135
  PAW double counting   =       655.43153270     -660.42726635
  entropy T*S    EENTRO =         0.00000000
  eigenvalues    EBANDS =      -255.99438623
  atomic energy  EATOM  =      1011.07184495
  ---------------------------------------------------
  free energy    TOTEN  =       -23.00713890 eV

  energy without entropy =      -23.00713890  energy(sigma->0) =      -23.00713890


--------------------------------------------------------------------------------------------------------




----------------------------------------- Iteration    1(   8)  ---------------------------------------


    POTLOK:  cpu time    0.84: real time    0.84
    SETDIJ:  cpu time    0.01: real time    0.01
     EDDAV:  cpu time    0.34: real time    0.34
       DOS:  cpu time    0.00: real time    0.00
    CHARGE:  cpu time    0.12: real time    0.12
    MIXING:  cpu time    0.03: real time    0.03
    --------------------------------------------
      LOOP:  cpu time    1.34: real time    1.37

 eigenvalue-minimisations  :    19
 total energy-change (2. order) : 0.5420735E-01  (-0.2381291E-01)
 number of electron      16.0000138 magnetization 
 augmentation part        1.3094440 magnetization 

 Broyden mixing:
  rms(total) = 0.38877E-01    rms(broyden)= 0.38817E-01
  rms(prec ) = 0.65317E-01
  weight for this iteration     100.00

 eigenvalues of (default mixing * dielectric matrix)
  average eigenvalue GAMMA=   1.1977
  2.3528  0.9289  0.3116

 Free energy of the ion-electron system (eV)
  ---------------------------------------------------
  alpha Z        PSCENC =         2.08377909
  Ewald energy   TEWEN  =       170.01906707
  -1/2 Hartree   DENC   =     -1023.62314836
  -exchange  EXHF       =         0.00000000
  -V(xc)+E(xc)   XCENC  =        70.27586668
  PAW double counting   =       711.26288610     -716.20155438
  entropy T*S    EENTRO =         0.00000000
  eigenvalues    EBANDS =      -247.84167271
  atomic energy  EATOM  =      1011.07184495
  ---------------------------------------------------
  free energy    TOTEN  =       -22.95293156 eV

  energy without entropy =      -22.95293156  energy(sigma->0) =      -22.95293156


--------------------------------------------------------------------------------------------------------




----------------------------------------- Iteration    1(   9)  ---------------------------------------


    POTLOK:  cpu time    0.81: real time    0.81
    SETDIJ:  cpu time    0.01: real time    0.01
     EDDAV:  cpu time    0.34: real time    0.34
       DOS:  cpu time    0.00: real time    0.00
    CHARGE:  cpu time    0.12: real time    0.12
    MIXING:  cpu time    0.03: real time    0.03
    --------------------------------------------
      LOOP:  cpu time    1.31: real time    1.33

 eigenvalue-minimisations  :    18
 total energy-change (2. order) : 0.2488686E-02  (-0.9135029E-03)
 number of electron      16.0000138 magnetization 
 augmentation part        1.3081285 magnetization 

 Broyden mixing:
  rms(total) = 0.26389E-01    rms(broyden)= 0.26375E-01
  rms(prec ) = 0.47969E-01
  weight for this iteration     100.00

 eigenvalues of (default mixing * dielectric matrix)
  average eigenvalue GAMMA=   1.4143
  2.4303  0.9232  1.1518  1.1518

 Free energy of the ion-electron system (eV)
  ---------------------------------------------------
  alpha Z        PSCENC =         2.08377909
  Ewald energy   TEWEN  =       170.01906707
  -1/2 Hartree   DENC   =     -1023.26723369
  -exchange  EXHF       =         0.00000000
  -V(xc)+E(xc)   XCENC  =        70.25788420
  PAW double counting   =       709.50318441     -714.43612675
  entropy T*S    EENTRO =         0.00000000
  eigenvalues    EBANDS =      -248.18284216
  atomic energy  EATOM  =      1011.07184495
  ---------------------------------------------------
  free energy    TOTEN  =       -22.95044287 eV

  energy without entropy =      -22.95044287  energy(sigma->0) =      -22.95044287


--------------------------------------------------------------------------------------------------------




----------------------------------------- Iteration    1(  10)  ---------------------------------------


    POTLOK:  cpu time    0.80: real time    0.80
    SETDIJ:  cpu time    0.01: real time    0.01
     EDDAV:  cpu time    0.34: real time    0.34
       DOS:  cpu time    0.00: real time    0.00
    CHARGE:  cpu time    0.12: real time    0.12
    MIXING:  cpu time    0.03: real time    0.03
    --------------------------------------------
      LOOP:  cpu time    1.30: real time    1.32

 eigenvalue-minimisations  :    18
 total energy-change (2. order) :-0.1478714E-02  (-0.2989836E-02)
 number of electron      16.0000137 magnetization 
 augmentation part        1.3022189 magnetization 

 Broyden mixing:
  rms(total) = 0.19381E-01    rms(broyden)= 0.19358E-01
  rms(prec ) = 0.31280E-01
  weight for this iteration     100.00

 eigenvalues of (default mixing * dielectric matrix)
  average eigenvalue GAMMA=   1.4374
  2.2091  2.1694  0.8243  0.9920  0.9920

 Free energy of the ion-electron system (eV)
  ---------------------------------------------------
  alpha Z        PSCENC =         2.08377909
  Ewald energy   TEWEN  =       170.01906707
  -1/2 Hartree   DENC   =     -1023.45409116
  -exchange  EXHF       =         0.00000000
  -V(xc)+E(xc)   XCENC  =        70.26504295
  PAW double counting   =       709.75182643     -714.64807269
  entropy T*S    EENTRO =         0.00000000
  eigenvalues    EBANDS =      -248.04131823
  atomic energy  EATOM  =      1011.07184495
  ---------------------------------------------------
  free energy    TOTEN  =       -22.95192158 eV

  energy without entropy =      -22.95192158  energy(sigma->0) =      -22.95192158


--------------------------------------------------------------------------------------------------------




----------------------------------------- Iteration    1(  11)  ---------------------------------------


    POTLOK:  cpu time    0.88: real time    0.88
    SETDIJ:  cpu time    0.01: real time    0.01
     EDDAV:  cpu time    0.44: real time    0.44
       DOS:  cpu time    0.00: real time    0.00
    CHARGE:  cpu time    0.12: real time    0.12
    MIXING:  cpu time    0.03: real time    0.03
    --------------------------------------------
      LOOP:  cpu time    1.48: real time    1.50

 eigenvalue-minimisations  :    27
 total energy-change (2. order) :-0.1881569E-02  (-0.5944720E-03)
 number of electron      16.0000138 magnetization 
 augmentation part        1.3065598 magnetization 

 Broyden mixing:
  rms(total) = 0.66089E-02    rms(broyden)= 0.65995E-02
  rms(prec ) = 0.13679E-01
  weight for this iteration     100.00

 eigenvalues of (default mixing * dielectric matrix)
  average eigenvalue GAMMA=   1.6105
  2.9617  2.3044  1.4323  0.8150  1.0749  1.0749

 Free energy of the ion-electron system (eV)
  ---------------------------------------------------
  alpha Z        PSCENC =         2.08377909
  Ewald energy   TEWEN  =       170.01906707
  -1/2 Hartree   DENC   =     -1023.15429621
  -exchange  EXHF       =         0.00000000
  -V(xc)+E(xc)   XCENC  =        70.23422777
  PAW double counting   =       707.56264524     -712.44934439
  entropy T*S    EENTRO =         0.00000000
  eigenvalues    EBANDS =      -248.32172668
  atomic energy  EATOM  =      1011.07184495
  ---------------------------------------------------
  free energy    TOTEN  =       -22.95380315 eV

  energy without entropy =      -22.95380315  energy(sigma->0) =      -22.95380315


--------------------------------------------------------------------------------------------------------




----------------------------------------- Iteration    1(  12)  ---------------------------------------


    POTLOK:  cpu time    0.90: real time    0.90
    SETDIJ:  cpu time    0.01: real time    0.01
     EDDAV:  cpu time    0.34: real time    0.34
       DOS:  cpu time    0.00: real time    0.00
    CHARGE:  cpu time    0.12: real time    0.12
    MIXING:  cpu time    0.03: real time    0.03
    --------------------------------------------
      LOOP:  cpu time    1.40: real time    1.42

 eigenvalue-minimisations  :    18
 total energy-change (2. order) :-0.3172277E-02  (-0.9491086E-04)
 number of electron      16.0000137 magnetization 
 augmentation part        1.3058875 magnetization 

 Broyden mixing:
  rms(total) = 0.31232E-02    rms(broyden)= 0.31200E-02
  rms(prec ) = 0.54716E-02
  weight for this iteration     100.00

 eigenvalues of (default mixing * dielectric matrix)
  average eigenvalue GAMMA=   1.7051
  3.6030  2.4841  1.9187  1.0182  1.0182  1.0724  0.8214

 Free energy of the ion-electron system (eV)
  ---------------------------------------------------
  alpha Z        PSCENC =         2.08377909
  Ewald energy   TEWEN  =       170.01906707
  -1/2 Hartree   DENC   =     -1023.82263328
  -exchange  EXHF       =         0.00000000
  -V(xc)+E(xc)   XCENC  =        70.25630393
  PAW double counting   =       708.20679720     -713.10174179
  entropy T*S    EENTRO =         0.00000000
  eigenvalues    EBANDS =      -247.67039260
  atomic energy  EATOM  =      1011.07184495
  ---------------------------------------------------
  free energy    TOTEN  =       -22.95697543 eV

  energy without entropy =      -22.95697543  energy(sigma->0) =      -22.95697543


--------------------------------------------------------------------------------------------------------




----------------------------------------- Iteration    1(  13)  ---------------------------------------


    POTLOK:  cpu time    0.85: real time    0.85
    SETDIJ:  cpu time    0.01: real time    0.01
     EDDAV:  cpu time    0.34: real time    0.34
       DOS:  cpu time    0.00: real time    0.00
    CHARGE:  cpu time    0.12: real time    0.12
    MIXING:  cpu time    0.03: real time    0.03
    --------------------------------------------
      LOOP:  cpu time    1.35: real time    1.37

 eigenvalue-minimisations  :    19
 total energy-change (2. order) :-0.1437234E-02  (-0.4644004E-04)
 number of electron      16.0000137 magnetization 
 augmentation part        1.3060029 magnetization 

 Broyden mixing:
  rms(total) = 0.33943E-02    rms(broyden)= 0.33923E-02
  rms(prec ) = 0.55935E-02
  weight for this iteration     100.00

 eigenvalues of (default mixing * dielectric matrix)
  average eigenvalue GAMMA=   1.9701
  4.9435  2.7499  2.3550  1.8324  1.0394  1.0394  0.8216  0.9794

 Free energy of the ion-electron system (eV)
  ---------------------------------------------------
  alpha Z        PSCENC =         2.08377909
  Ewald energy   TEWEN  =       170.01906707
  -1/2 Hartree   DENC   =     -1024.00769229
  -exchange  EXHF       =         0.00000000
  -V(xc)+E(xc)   XCENC  =        70.26036412
  PAW double counting   =       708.01645703     -712.91529855
  entropy T*S    EENTRO =         0.00000000
  eigenvalues    EBANDS =      -247.48693408
  atomic energy  EATOM  =      1011.07184495
  ---------------------------------------------------
  free energy    TOTEN  =       -22.95841266 eV

  energy without entropy =      -22.95841266  energy(sigma->0) =      -22.95841266


--------------------------------------------------------------------------------------------------------




----------------------------------------- Iteration    1(  14)  ---------------------------------------


    POTLOK:  cpu time    0.88: real time    0.88
    SETDIJ:  cpu time    0.01: real time    0.01
     EDDAV:  cpu time    0.37: real time    0.37
       DOS:  cpu time    0.00: real time    0.00
    CHARGE:  cpu time    0.14: real time    0.14
    MIXING:  cpu time    0.04: real time    0.04
    --------------------------------------------
      LOOP:  cpu time    1.43: real time    1.44

 eigenvalue-minimisations  :    19
 total energy-change (2. order) :-0.6589901E-03  (-0.3943561E-04)
 number of electron      16.0000137 magnetization 
 augmentation part        1.3054347 magnetization 

 Broyden mixing:
  rms(total) = 0.72087E-03    rms(broyden)= 0.71287E-03
  rms(prec ) = 0.11127E-02
  weight for this iteration     100.00

 eigenvalues of (default mixing * dielectric matrix)
  average eigenvalue GAMMA=   2.0876
  5.7511  2.1727  2.1727  2.5352  2.2780  1.0325  1.0325  0.9929  0.8209

 Free energy of the ion-electron system (eV)
  ---------------------------------------------------
  alpha Z        PSCENC =         2.08377909
  Ewald energy   TEWEN  =       170.01906707
  -1/2 Hartree   DENC   =     -1023.93646577
  -exchange  EXHF       =         0.00000000
  -V(xc)+E(xc)   XCENC  =        70.25713465
  PAW double counting   =       708.01250622     -712.90394196
  entropy T*S    EENTRO =         0.00000000
  eigenvalues    EBANDS =      -247.56299591
  atomic energy  EATOM  =      1011.07184495
  ---------------------------------------------------
  free energy    TOTEN  =       -22.95907165 eV

  energy without entropy =      -22.95907165  energy(sigma->0) =      -22.95907165


--------------------------------------------------------------------------------------------------------




----------------------------------------- Iteration    1(  15)  ---------------------------------------


    POTLOK:  cpu time    0.93: real time    0.94
    SETDIJ:  cpu time    0.01: real time    0.01
     EDDAV:  cpu time    0.25: real time    0.25
       DOS:  cpu time    0.00: real time    0.00
    --------------------------------------------
      LOOP:  cpu time    1.19: real time    1.22

 eigenvalue-minimisations  :    11
 total energy-change (2. order) :-0.8382989E-04  (-0.4663689E-05)
 number of electron      16.0000137 magnetization 
 augmentation part        1.3054347 magnetization 

 Free energy of the ion-electron system (eV)
  ---------------------------------------------------
  alpha Z        PSCENC =         2.08377909
  Ewald energy   TEWEN  =       170.01906707
  -1/2 Hartree   DENC   =     -1023.98295714
  -exchange  EXHF       =         0.00000000
  -V(xc)+E(xc)   XCENC  =        70.25896169
  PAW double counting   =       708.13625655     -713.03097563
  entropy T*S    EENTRO =         0.00000000
  eigenvalues    EBANDS =      -247.51513207
  atomic energy  EATOM  =      1011.07184495
  ---------------------------------------------------
  free energy    TOTEN  =       -22.95915548 eV

  energy without entropy =      -22.95915548  energy(sigma->0) =      -22.95915548


--------------------------------------------------------------------------------------------------------




 average (electrostatic) potential at core
  the test charge radii are     0.6991  0.7215
  (the norm of the test charge is              1.0000)
       1 -63.3380       2 -82.5140       3 -82.5140
 
 
 
 E-fermi :  -8.5555     XC(G=0):  -1.3513     alpha+bet : -0.4886


 k-point   1 :       0.0000    0.0000    0.0000
  band No.  band energies     occupation 
      1     -28.7583      2.00000
      2     -27.7452      2.00000
      3     -13.3952      2.00000
      4     -12.2012      2.00000
      5     -12.2012      2.00000
      6     -12.1750      2.00000
      7      -8.6407      2.00000
      8      -8.6407      2.00000
      9      -0.8764      0.00000


--------------------------------------------------------------------------------------------------------


 soft charge-density along one line, spin component           1
         0         1         2         3         4         5         6         7         8         9
 total charge-density along one line
 
 pseudopotential strength for first ion, spin component:           1
 10.532   0.029   0.000   0.000   0.000   0.000   0.000   0.000
  0.029  -0.001   0.000   0.000   0.000   0.000   0.000   0.000
  0.000   0.000  -4.608   0.000   0.000  -0.017   0.000   0.000
  0.000   0.000   0.000  -4.655   0.000   0.000  -0.027   0.000
  0.000   0.000   0.000   0.000  -4.608   0.000   0.000  -0.017
  0.000   0.000  -0.017   0.000   0.000  -0.778   0.000   0.000
  0.000   0.000   0.000  -0.027   0.000   0.000  -0.780   0.000
  0.000   0.000   0.000   0.000  -0.017   0.000   0.000  -0.778
 total augmentation occupancy for first ion, spin component:           1
  1.574  -1.191   0.000   0.000   0.000   0.000   0.000   0.000
 -1.191   1.915   0.000   0.000   0.000   0.000   0.000   0.000
  0.000   0.000   0.914   0.000   0.000   0.139   0.000   0.000
  0.000   0.000   0.000   1.450   0.000   0.000   0.405   0.000
  0.000   0.000   0.000   0.000   0.914   0.000   0.000   0.139
  0.000   0.000   0.139   0.000   0.000   0.021   0.000   0.000
  0.000   0.000   0.000   0.405   0.000   0.000   0.142   0.000
  0.000   0.000   0.000   0.000   0.139   0.000   0.000   0.021


------------------------ aborting loop because EDIFF is reached ----------------------------------------


    CHARGE:  cpu time    0.13: real time    0.13
    FORLOC:  cpu time    0.07: real time    0.08
    FORNL :  cpu time    0.04: real time    0.04
    STRESS:  cpu time    0.22: real time    0.22
    FORHAR:  cpu time    0.29: real time    0.29
    MIXING:  cpu time    0.04: real time    0.04

  FORCE on cell =-STRESS in cart. coord.  units (eV):
  Direction    XX          YY          ZZ          XY          YZ          ZX
  --------------------------------------------------------------------------------------
  Alpha Z     2.08378     2.08378     2.08378
  Ewald    -224.27184  -224.27184   618.56258     0.00000     0.00000     0.00000
  Hartree   199.97404   199.97404   623.92179     0.00000     0.00000     0.00000
  E(xc)     -74.69355   -74.69355   -72.51541     0.00000     0.00000     0.00000
  Local    -214.83299  -214.83299 -1409.86115     0.00000     0.00000     0.00000
  n-local   -50.08344   -50.08344   -55.71628     0.00000     0.00000     0.00000
  augment    13.10493    13.10493    10.47188     0.00000     0.00000     0.00000
  Kinetic   343.92332   343.92332   278.44499     0.00000     0.00000     0.00000
  Fock        0.00000     0.00000     0.00000     0.00000     0.00000     0.00000
  -------------------------------------------------------------------------------------
  Total      -4.79575    -4.79575    -4.60781     0.00000     0.00000     0.00000
  in kB     -15.00711   -15.00711   -14.41900     0.00000     0.00000     0.00000
  external pressure =      -14.81 kB  Pullay stress =        0.00 kB


 VOLUME and BASIS-vectors are now :
 -----------------------------------------------------------------------------
  energy-cutoff  :      350.00
  volume of cell :      512.00
      direct lattice vectors                 reciprocal lattice vectors
     8.000000000  0.000000000  0.000000000     0.125000000  0.000000000  0.000000000
     0.000000000  8.000000000  0.000000000     0.000000000  0.125000000  0.000000000
     0.000000000  0.000000000  8.000000000     0.000000000  0.000000000  0.125000000

  length of vectors
     8.000000000  8.000000000  8.000000000     0.125000000  0.125000000  0.125000000


 FORCES acting on ions
    electron-ion (+dipol)            ewald-force                    non-local-force                 convergence-correction
 -----------------------------------------------------------------------------------------------
   0.116E-12 0.566E-12 -.686E-12   -.166E-16 0.106E-15 0.111E-13   0.000E+00 0.000E+00 0.000E+00   0.648E-13 0.695E-13 -.203E-13
   0.291E-12 0.575E-12 -.262E+03   -.274E-16 -.559E-16 0.326E+03   0.662E-23 -.463E-22 -.642E+02   0.122E-12 0.827E-13 -.379E-01
   0.304E-12 0.985E-12 0.262E+03   0.170E-15 0.133E-15 -.326E+03   0.000E+00 0.132E-22 0.642E+02   0.982E-13 0.153E-12 0.379E-01
 -----------------------------------------------------------------------------------------------
   0.711E-12 0.213E-11 0.853E-12   0.126E-15 0.183E-15 0.000E+00   0.662E-23 -.331E-22 -.142E-13   0.285E-12 0.305E-12 -.621E-13
 
 
 POSITION                                       TOTAL-FORCE (eV/Angst)
 -----------------------------------------------------------------------------------
      4.00000      4.00000      4.00000         0.000000      0.000000      0.000000
      4.00000      4.00000      5.17866         0.000000      0.000000     -0.181586
      4.00000      4.00000      2.82134         0.000000      0.000000      0.181586
 -----------------------------------------------------------------------------------
    total drift:                                0.000000      0.000000      0.000000


--------------------------------------------------------------------------------------------------------



  FREE ENERGIE OF THE ION-ELECTRON SYSTEM (eV)
  ---------------------------------------------------
  free  energy   TOTEN  =       -22.959155 eV

  energy  without entropy=      -22.959155  energy(sigma->0) =      -22.959155
 


--------------------------------------------------------------------------------------------------------


    POTLOK:  cpu time    0.93: real time    0.93


--------------------------------------------------------------------------------------------------------


 Quasi-Newton relaxation of ions (Broydens 2nd method)
  g(Force)  = 0.318E-02   g(Stress)= 0.000E+00

 Reset! Starting new Quasi-Newton update for ions 


--------------------------------------------------------------------------------------------------------


    WAVPRE:  cpu time    0.18: real time    0.18
    FEWALD:  cpu time    0.00: real time    0.00
    ORTHCH:  cpu time    0.01: real time    0.01
     LOOP+:  cpu time   19.68: real time   20.56


----------------------------------------- Iteration    2(   1)  ---------------------------------------


    POTLOK:  cpu time    0.90: real time    0.90
    SETDIJ:  cpu time    0.01: real time    0.01
     EDDAV:  cpu time    0.34: real time    0.34
       DOS:  cpu time    0.00: real time    0.00
    CHARGE:  cpu time    0.13: real time    0.14
    MIXING:  cpu time    0.03: real time    0.03
    --------------------------------------------
      LOOP:  cpu time    1.42: real time    1.43

 eigenvalue-minimisations  :    18
 total energy-change (2. order) : 0.4577380E-02  (-0.8664508E-01)
 number of electron      16.0000094 magnetization 
 augmentation part        1.3164195 magnetization 

 Broyden mixing:
  rms(total) = 0.29341E-01    rms(broyden)= 0.29032E-01
  rms(prec ) = 0.36883E-01
  weight for this iteration     100.00

 Free energy of the ion-electron system (eV)
  ---------------------------------------------------
  alpha Z        PSCENC =         2.08377909
  Ewald energy   TEWEN  =       175.77400328
  -1/2 Hartree   DENC   =     -1027.84547947
  -exchange  EXHF       =         0.00000000
  -V(xc)+E(xc)   XCENC  =        70.33126529
  PAW double counting   =       708.07243295     -712.96535752
  entropy T*S    EENTRO =         0.00000000
  eigenvalues    EBANDS =      -249.47698285
  atomic energy  EATOM  =      1011.07184495
  ---------------------------------------------------
  free energy    TOTEN  =       -22.95449427 eV

  energy without entropy =      -22.95449427  energy(sigma->0) =      -22.95449427


--------------------------------------------------------------------------------------------------------




----------------------------------------- Iteration    2(   2)  ---------------------------------------


    POTLOK:  cpu time    0.90: real time    0.90
    SETDIJ:  cpu time    0.01: real time    0.01
     EDDAV:  cpu time    0.36: real time    0.36
       DOS:  cpu time    0.00: real time    0.00
    CHARGE:  cpu time    0.12: real time    0.12
    MIXING:  cpu time    0.03: real time    0.03
    --------------------------------------------
      LOOP:  cpu time    1.42: real time    1.42

 eigenvalue-minimisations  :    20
 total energy-change (2. order) :-0.5177616E-03  (-0.2351705E-02)
 number of electron      16.0000093 magnetization 
 augmentation part        1.3136800 magnetization 

 Broyden mixing:
  rms(total) = 0.12702E-01    rms(broyden)= 0.12651E-01
  rms(prec ) = 0.18019E-01
  weight for this iteration     100.00

 eigenvalues of (default mixing * dielectric matrix)
  average eigenvalue GAMMA=   0.9510
  0.9510

 Free energy of the ion-electron system (eV)
  ---------------------------------------------------
  alpha Z        PSCENC =         2.08377909
  Ewald energy   TEWEN  =       175.77400328
  -1/2 Hartree   DENC   =     -1028.67910722
  -exchange  EXHF       =         0.00000000
  -V(xc)+E(xc)   XCENC  =        70.37800172
  PAW double counting   =       711.00002140     -715.90309336
  entropy T*S    EENTRO =         0.00000000
  eigenvalues    EBANDS =      -248.68046190
  atomic energy  EATOM  =      1011.07184495
  ---------------------------------------------------
  free energy    TOTEN  =       -22.95501203 eV

  energy without entropy =      -22.95501203  energy(sigma->0) =      -22.95501203


--------------------------------------------------------------------------------------------------------




----------------------------------------- Iteration    2(   3)  ---------------------------------------


    POTLOK:  cpu time    0.84: real time    0.84
    SETDIJ:  cpu time    0.01: real time    0.01
     EDDAV:  cpu time    0.44: real time    0.44
       DOS:  cpu time    0.00: real time    0.00
    CHARGE:  cpu time    0.12: real time    0.12
    MIXING:  cpu time    0.03: real time    0.03
    --------------------------------------------
      LOOP:  cpu time    1.44: real time    1.46

 eigenvalue-minimisations  :    27
 total energy-change (2. order) : 0.3874215E-03  (-0.1009345E-03)
 number of electron      16.0000093 magnetization 
 augmentation part        1.3148283 magnetization 

 Broyden mixing:
  rms(total) = 0.65958E-02    rms(broyden)= 0.65922E-02
  rms(prec ) = 0.85923E-02
  weight for this iteration     100.00

 eigenvalues of (default mixing * dielectric matrix)
  average eigenvalue GAMMA=   1.3926
  0.8377  1.9475

 Free energy of the ion-electron system (eV)
  ---------------------------------------------------
  alpha Z        PSCENC =         2.08377909
  Ewald energy   TEWEN  =       175.77400328
  -1/2 Hartree   DENC   =     -1028.82090233
  -exchange  EXHF       =         0.00000000
  -V(xc)+E(xc)   XCENC  =        70.38181720
  PAW double counting   =       711.94593016     -716.85475055
  entropy T*S    EENTRO =         0.00000000
  eigenvalues    EBANDS =      -248.53634641
  atomic energy  EATOM  =      1011.07184495
  ---------------------------------------------------
  free energy    TOTEN  =       -22.95462461 eV

  energy without entropy =      -22.95462461  energy(sigma->0) =      -22.95462461


--------------------------------------------------------------------------------------------------------




----------------------------------------- Iteration    2(   4)  ---------------------------------------


    POTLOK:  cpu time    0.95: real time    0.95
    SETDIJ:  cpu time    0.01: real time    0.01
     EDDAV:  cpu time    0.35: real time    0.35
       DOS:  cpu time    0.00: real time    0.00
    --------------------------------------------
      LOOP:  cpu time    1.31: real time    1.33

 eigenvalue-minimisations  :    19
 total energy-change (2. order) : 0.4607525E-04  (-0.7659032E-04)
 number of electron      16.0000093 magnetization 
 augmentation part        1.3148283 magnetization 

 Free energy of the ion-electron system (eV)
  ---------------------------------------------------
  alpha Z        PSCENC =         2.08377909
  Ewald energy   TEWEN  =       175.77400328
  -1/2 Hartree   DENC   =     -1029.09195165
  -exchange  EXHF       =         0.00000000
  -V(xc)+E(xc)   XCENC  =        70.39348590
  PAW double counting   =       713.46062314     -718.38014480
  entropy T*S    EENTRO =         0.00000000
  eigenvalues    EBANDS =      -248.26621845
  atomic energy  EATOM  =      1011.07184495
  ---------------------------------------------------
  free energy    TOTEN  =       -22.95457854 eV

  energy without entropy =      -22.95457854  energy(sigma->0) =      -22.95457854


--------------------------------------------------------------------------------------------------------




 average (electrostatic) potential at core
  the test charge radii are     0.6991  0.7215
  (the norm of the test charge is              1.0000)
       1 -63.3141       2 -82.5180       3 -82.5180
 
 
 
 E-fermi :  -8.5960     XC(G=0):  -1.4263     alpha+bet : -0.4886


 k-point   1 :       0.0000    0.0000    0.0000
  band No.  band energies     occupation 
      1     -28.8693      2.00000
      2     -27.8570      2.00000
      3     -13.3522      2.00000
      4     -12.2844      2.00000
      5     -12.2844      2.00000
      6     -12.1774      2.00000
      7      -8.6542      2.00000
      8      -8.6542      2.00000
      9      -0.8901      0.00000


--------------------------------------------------------------------------------------------------------


 soft charge-density along one line, spin component           1
         0         1         2         3         4         5         6         7         8         9
 total charge-density along one line
 
 pseudopotential strength for first ion, spin component:           1
 10.533   0.029   0.000   0.000   0.000   0.000   0.000   0.000
  0.029  -0.001   0.000   0.000   0.000   0.000   0.000   0.000
  0.000   0.000  -4.604   0.000   0.000  -0.018   0.000   0.000
  0.000   0.000   0.000  -4.655   0.000   0.000  -0.029   0.000
  0.000   0.000   0.000   0.000  -4.604   0.000   0.000  -0.018
  0.000   0.000  -0.018   0.000   0.000  -0.778   0.000   0.000
  0.000   0.000   0.000  -0.029   0.000   0.000  -0.780   0.000
  0.000   0.000   0.000   0.000  -0.018   0.000   0.000  -0.778
 total augmentation occupancy for first ion, spin component:           1
  1.585  -1.236   0.000   0.000   0.000   0.000   0.000   0.000
 -1.236   1.988   0.000   0.000   0.000   0.000   0.000   0.000
  0.000   0.000   0.923   0.000   0.000   0.142   0.000   0.000
  0.000   0.000   0.000   1.475   0.000   0.000   0.413   0.000
  0.000   0.000   0.000   0.000   0.923   0.000   0.000   0.142
  0.000   0.000   0.142   0.000   0.000   0.022   0.000   0.000
  0.000   0.000   0.000   0.413   0.000   0.000   0.146   0.000
  0.000   0.000   0.000   0.000   0.142   0.000   0.000   0.022


------------------------ aborting loop because EDIFF is reached ----------------------------------------


    CHARGE:  cpu time    0.14: real time    0.14
    FORLOC:  cpu time    0.07: real time    0.08
    FORNL :  cpu time    0.04: real time    0.04
    STRESS:  cpu time    0.22: real time    0.22
    FORHAR:  cpu time    0.29: real time    0.30
    MIXING:  cpu time    0.03: real time    0.03

  FORCE on cell =-STRESS in cart. coord.  units (eV):
  Direction    XX          YY          ZZ          XY          YZ          ZX
  --------------------------------------------------------------------------------------
  Alpha Z     2.08378     2.08378     2.08378
  Ewald    -224.19973  -224.19973   624.17330     0.00000     0.00000     0.00000
  Hartree   201.64197   201.64197   625.81771     0.00000     0.00000     0.00000
  E(xc)     -74.83272   -74.83272   -72.64478     0.00000     0.00000     0.00000
  Local    -216.87205  -216.87205 -1415.79478     0.00000     0.00000     0.00000
  n-local   -50.23650   -50.23650   -56.09737     0.00000     0.00000     0.00000
  augment    13.14844    13.14844    10.46002     0.00000     0.00000     0.00000
  Kinetic   344.49771   344.49771   279.53396     0.00000     0.00000     0.00000
  Fock        0.00000     0.00000     0.00000     0.00000     0.00000     0.00000
  -------------------------------------------------------------------------------------
  Total      -4.76910    -4.76910    -2.46817     0.00000     0.00000     0.00000
  in kB     -14.92373   -14.92373    -7.72352     0.00000     0.00000     0.00000
  external pressure =      -12.52 kB  Pullay stress =        0.00 kB


 VOLUME and BASIS-vectors are now :
 -----------------------------------------------------------------------------
  energy-cutoff  :      350.00
  volume of cell :      512.00
      direct lattice vectors                 reciprocal lattice vectors
     8.000000000  0.000000000  0.000000000     0.125000000  0.000000000  0.000000000
     0.000000000  8.000000000  0.000000000     0.000000000  0.125000000  0.000000000
     0.000000000  0.000000000  8.000000000     0.000000000  0.000000000  0.125000000

  length of vectors
     8.000000000  8.000000000  8.000000000     0.125000000  0.125000000  0.125000000


 FORCES acting on ions
    electron-ion (+dipol)            ewald-force                    non-local-force                 convergence-correction
 -----------------------------------------------------------------------------------------------
   0.118E-12 0.581E-12 -.691E-12   -.166E-16 0.329E-17 0.107E-13   0.000E+00 0.000E+00 0.000E+00   0.759E-13 0.796E-13 0.604E-13
   0.297E-12 0.467E-12 -.266E+03   0.864E-16 0.143E-15 0.331E+03   -.165E-23 0.123E-23 -.648E+02   0.149E-12 0.121E-12 -.106E+00
   0.293E-12 0.577E-12 0.266E+03   0.558E-16 0.366E-16 -.331E+03   0.000E+00 0.414E-24 0.648E+02   0.117E-12 0.167E-12 0.106E+00
 -----------------------------------------------------------------------------------------------
   0.708E-12 0.162E-11 0.853E-12   0.126E-15 0.183E-15 0.000E+00   -.165E-23 0.164E-23 0.000E+00   0.341E-12 0.368E-12 -.548E-13
 
 
 POSITION                                       TOTAL-FORCE (eV/Angst)
 -----------------------------------------------------------------------------------
      4.00000      4.00000      4.00000         0.000000      0.000000      0.000000
      4.00000      4.00000      5.16990         0.000000      0.000000      0.737579
      4.00000      4.00000      2.83010         0.000000      0.000000     -0.737579
 -----------------------------------------------------------------------------------
    total drift:                                0.000000      0.000000      0.000000


--------------------------------------------------------------------------------------------------------



  FREE ENERGIE OF THE ION-ELECTRON SYSTEM (eV)
  ---------------------------------------------------
  free  energy   TOTEN  =       -22.954579 eV

  energy  without entropy=      -22.954579  energy(sigma->0) =      -22.954579
 
 d Force =-0.4870608E-02[-0.129E-01, 0.318E-02]  d Energy =-0.4576945E-02-0.294E-03
 d Force =-0.5755103E+01[-0.580E+01,-0.571E+01]  d Ewald  =-0.5754936E+01-0.166E-03


--------------------------------------------------------------------------------------------------------


    POTLOK:  cpu time    0.93: real time    0.93


--------------------------------------------------------------------------------------------------------


 Quasi-Newton relaxation of ions (Broydens 2nd method)
  g(Force)  = 0.525E-01   g(Stress)= 0.000E+00

 retain information from N=  1 steps
 eigenvalues of (default step * inverse Hessian matrix)
  average eigenvalue of G=   0.1976
 eigenvalue spectrum of G is  0.1976


--------------------------------------------------------------------------------------------------------


    WAVPRE:  cpu time    0.16: real time    0.16
    FEWALD:  cpu time    0.00: real time    0.00
    ORTHCH:  cpu time    0.01: real time    0.01
     LOOP+:  cpu time    7.50: real time    7.60


----------------------------------------- Iteration    3(   1)  ---------------------------------------


    POTLOK:  cpu time    0.97: real time    0.97
    SETDIJ:  cpu time    0.01: real time    0.01
     EDDAV:  cpu time    0.36: real time    0.36
       DOS:  cpu time    0.00: real time    0.00
    CHARGE:  cpu time    0.14: real time    0.14
    MIXING:  cpu time    0.03: real time    0.03
    --------------------------------------------
      LOOP:  cpu time    1.51: real time    1.52

 eigenvalue-minimisations  :    19
 total energy-change (2. order) :-0.4952777E-02  (-0.5481107E-01)
 number of electron      16.0000128 magnetization 
 augmentation part        1.3056807 magnetization 

 Broyden mixing:
  rms(total) = 0.23475E-01    rms(broyden)= 0.23236E-01
  rms(prec ) = 0.29718E-01
  weight for this iteration     100.00

 Free energy of the ion-electron system (eV)
  ---------------------------------------------------
  alpha Z        PSCENC =         2.08377909
  Ewald energy   TEWEN  =       171.14863251
  -1/2 Hartree   DENC   =     -1025.90727184
  -exchange  EXHF       =         0.00000000
  -V(xc)+E(xc)   XCENC  =        70.33223874
  PAW double counting   =       713.51490319     -718.43452417
  entropy T*S    EENTRO =         0.00000000
  eigenvalues    EBANDS =      -246.76917987
  atomic energy  EATOM  =      1011.07184495
  ---------------------------------------------------
  free energy    TOTEN  =       -22.95957739 eV

  energy without entropy =      -22.95957739  energy(sigma->0) =      -22.95957739


--------------------------------------------------------------------------------------------------------




----------------------------------------- Iteration    3(   2)  ---------------------------------------


    POTLOK:  cpu time    0.91: real time    0.91
    SETDIJ:  cpu time    0.01: real time    0.01
     EDDAV:  cpu time    0.36: real time    0.36
       DOS:  cpu time    0.00: real time    0.00
    CHARGE:  cpu time    0.13: real time    0.13
    MIXING:  cpu time    0.03: real time    0.03
    --------------------------------------------
      LOOP:  cpu time    1.44: real time    1.46

 eigenvalue-minimisations  :    20
 total energy-change (2. order) :-0.2806603E-03  (-0.1490850E-02)
 number of electron      16.0000129 magnetization 
 augmentation part        1.3080413 magnetization 

 Broyden mixing:
  rms(total) = 0.96762E-02    rms(broyden)= 0.96335E-02
  rms(prec ) = 0.13926E-01
  weight for this iteration     100.00

 eigenvalues of (default mixing * dielectric matrix)
  average eigenvalue GAMMA=   0.9392
  0.9392

 Free energy of the ion-electron system (eV)
  ---------------------------------------------------
  alpha Z        PSCENC =         2.08377909
  Ewald energy   TEWEN  =       171.14863251
  -1/2 Hartree   DENC   =     -1025.23057515
  -exchange  EXHF       =         0.00000000
  -V(xc)+E(xc)   XCENC  =        70.29411183
  PAW double counting   =       711.25735763     -716.16934396
  entropy T*S    EENTRO =         0.00000000
  eigenvalues    EBANDS =      -247.41566497
  atomic energy  EATOM  =      1011.07184495
  ---------------------------------------------------
  free energy    TOTEN  =       -22.95985805 eV

  energy without entropy =      -22.95985805  energy(sigma->0) =      -22.95985805


--------------------------------------------------------------------------------------------------------




----------------------------------------- Iteration    3(   3)  ---------------------------------------


    POTLOK:  cpu time    0.92: real time    0.92
    SETDIJ:  cpu time    0.01: real time    0.01
     EDDAV:  cpu time    0.45: real time    0.45
       DOS:  cpu time    0.00: real time    0.00
    CHARGE:  cpu time    0.13: real time    0.13
    MIXING:  cpu time    0.03: real time    0.03
    --------------------------------------------
      LOOP:  cpu time    1.54: real time    1.60

 eigenvalue-minimisations  :    27
 total energy-change (2. order) : 0.2467269E-03  (-0.6363821E-04)
 number of electron      16.0000129 magnetization 
 augmentation part        1.3070559 magnetization 

 Broyden mixing:
  rms(total) = 0.49447E-02    rms(broyden)= 0.49417E-02
  rms(prec ) = 0.65187E-02
  weight for this iteration     100.00

 eigenvalues of (default mixing * dielectric matrix)
  average eigenvalue GAMMA=   1.3799
  0.8369  1.9229

 Free energy of the ion-electron system (eV)
  ---------------------------------------------------
  alpha Z        PSCENC =         2.08377909
  Ewald energy   TEWEN  =       171.14863251
  -1/2 Hartree   DENC   =     -1025.13467016
  -exchange  EXHF       =         0.00000000
  -V(xc)+E(xc)   XCENC  =        70.29182045
  PAW double counting   =       710.58293667     -715.49080574
  entropy T*S    EENTRO =         0.00000000
  eigenvalues    EBANDS =      -247.51314910
  atomic energy  EATOM  =      1011.07184495
  ---------------------------------------------------
  free energy    TOTEN  =       -22.95961132 eV

  energy without entropy =      -22.95961132  energy(sigma->0) =      -22.95961132


--------------------------------------------------------------------------------------------------------




----------------------------------------- Iteration    3(   4)  ---------------------------------------


    POTLOK:  cpu time    0.85: real time    0.85
    SETDIJ:  cpu time    0.01: real time    0.01
     EDDAV:  cpu time    0.35: real time    0.35
       DOS:  cpu time    0.00: real time    0.00
    --------------------------------------------
      LOOP:  cpu time    1.20: real time    1.22

 eigenvalue-minimisations  :    19
 total energy-change (2. order) : 0.3218521E-04  (-0.4760768E-04)
 number of electron      16.0000129 magnetization 
 augmentation part        1.3070559 magnetization 

 Free energy of the ion-electron system (eV)
  ---------------------------------------------------
  alpha Z        PSCENC =         2.08377909
  Ewald energy   TEWEN  =       171.14863251
  -1/2 Hartree   DENC   =     -1024.93612006
  -exchange  EXHF       =         0.00000000
  -V(xc)+E(xc)   XCENC  =        70.28320432
  PAW double counting   =       709.46900802     -714.36872667
  entropy T*S    EENTRO =         0.00000000
  eigenvalues    EBANDS =      -247.71120131
  atomic energy  EATOM  =      1011.07184495
  ---------------------------------------------------
  free energy    TOTEN  =       -22.95957914 eV

  energy without entropy =      -22.95957914  energy(sigma->0) =      -22.95957914


--------------------------------------------------------------------------------------------------------




 average (electrostatic) potential at core
  the test charge radii are     0.6991  0.7215
  (the norm of the test charge is              1.0000)
       1 -63.3519       2 -82.5161       3 -82.5161
 
 
 
 E-fermi :  -8.5598     XC(G=0):  -1.3414     alpha+bet : -0.4886


 k-point   1 :       0.0000    0.0000    0.0000
  band No.  band energies     occupation 
      1     -28.7861      2.00000
      2     -27.7724      2.00000
      3     -13.3878      2.00000
      4     -12.2222      2.00000
      5     -12.2222      2.00000
      6     -12.1765      2.00000
      7      -8.6442      2.00000
      8      -8.6442      2.00000
      9      -0.8717      0.00000


--------------------------------------------------------------------------------------------------------


 soft charge-density along one line, spin component           1
         0         1         2         3         4         5         6         7         8         9
 total charge-density along one line
 
 pseudopotential strength for first ion, spin component:           1
 10.533   0.029   0.000   0.000   0.000   0.000   0.000   0.000
  0.029  -0.001   0.000   0.000   0.000   0.000   0.000   0.000
  0.000   0.000  -4.608   0.000   0.000  -0.017   0.000   0.000
  0.000   0.000   0.000  -4.656   0.000   0.000  -0.027   0.000
  0.000   0.000   0.000   0.000  -4.608   0.000   0.000  -0.017
  0.000   0.000  -0.017   0.000   0.000  -0.778   0.000   0.000
  0.000   0.000   0.000  -0.027   0.000   0.000  -0.780   0.000
  0.000   0.000   0.000   0.000  -0.017   0.000   0.000  -0.778
 total augmentation occupancy for first ion, spin component:           1
  1.576  -1.204   0.000   0.000   0.000   0.000   0.000   0.000
 -1.204   1.932   0.000   0.000   0.000   0.000   0.000   0.000
  0.000   0.000   0.914   0.000   0.000   0.140   0.000   0.000
  0.000   0.000   0.000   1.454   0.000   0.000   0.407   0.000
  0.000   0.000   0.000   0.000   0.914   0.000   0.000   0.140
  0.000   0.000   0.140   0.000   0.000   0.021   0.000   0.000
  0.000   0.000   0.000   0.407   0.000   0.000   0.143   0.000
  0.000   0.000   0.000   0.000   0.140   0.000   0.000   0.021


------------------------ aborting loop because EDIFF is reached ----------------------------------------


    CHARGE:  cpu time    0.13: real time    0.13
    FORLOC:  cpu time    0.07: real time    0.07
    FORNL :  cpu time    0.05: real time    0.05
    STRESS:  cpu time    0.21: real time    0.21
    FORHAR:  cpu time    0.25: real time    0.75
    MIXING:  cpu time    0.03: real time    0.03

  FORCE on cell =-STRESS in cart. coord.  units (eV):
  Direction    XX          YY          ZZ          XY          YZ          ZX
  --------------------------------------------------------------------------------------
  Alpha Z     2.08378     2.08378     2.08378
  Ewald    -224.25759  -224.25759   619.66365     0.00000     0.00000     0.00000
  Hartree   200.30053   200.30053   624.33411     0.00000     0.00000     0.00000
  E(xc)     -74.71763   -74.71763   -72.53847     0.00000     0.00000     0.00000
  Local    -215.22773  -215.22773 -1411.08916     0.00000     0.00000     0.00000
  n-local   -50.11055   -50.11055   -55.79456     0.00000     0.00000     0.00000
  augment    13.11105    13.11105    10.46596     0.00000     0.00000     0.00000
  Kinetic   344.06558   344.06558   278.65799     0.00000     0.00000     0.00000
  Fock        0.00000     0.00000     0.00000     0.00000     0.00000     0.00000
  -------------------------------------------------------------------------------------
  Total      -4.75256    -4.75256    -4.21670     0.00000     0.00000     0.00000
  in kB     -14.87197   -14.87197   -13.19512     0.00000     0.00000     0.00000
  external pressure =      -14.31 kB  Pullay stress =        0.00 kB


 VOLUME and BASIS-vectors are now :
 -----------------------------------------------------------------------------
  energy-cutoff  :      350.00
  volume of cell :      512.00
      direct lattice vectors                 reciprocal lattice vectors
     8.000000000  0.000000000  0.000000000     0.125000000  0.000000000  0.000000000
     0.000000000  8.000000000  0.000000000     0.000000000  0.125000000  0.000000000
     0.000000000  0.000000000  8.000000000     0.000000000  0.000000000  0.125000000

  length of vectors
     8.000000000  8.000000000  8.000000000     0.125000000  0.125000000  0.125000000


 FORCES acting on ions
    electron-ion (+dipol)            ewald-force                    non-local-force                 convergence-correction
 -----------------------------------------------------------------------------------------------
   0.117E-12 0.569E-12 -.677E-12   0.426E-16 0.499E-16 0.129E-13   0.000E+00 0.000E+00 0.000E+00   0.796E-13 0.757E-13 -.894E-13
   0.291E-12 0.335E-12 -.263E+03   0.951E-16 0.109E-15 0.327E+03   -.207E-24 0.207E-24 -.643E+02   0.157E-12 0.174E-12 0.830E-01
   0.285E-12 0.946E-12 0.263E+03   -.121E-16 0.241E-16 -.327E+03   0.517E-25 0.000E+00 0.643E+02   0.120E-12 0.808E-13 -.830E-01
 -----------------------------------------------------------------------------------------------
   0.693E-12 0.185E-11 0.853E-12   0.126E-15 0.183E-15 0.000E+00   -.155E-24 0.207E-24 0.142E-13   0.356E-12 0.330E-12 -.580E-13
 
 
 POSITION                                       TOTAL-FORCE (eV/Angst)
 -----------------------------------------------------------------------------------
      4.00000      4.00000      4.00000         0.000000      0.000000      0.000000
      4.00000      4.00000      5.17693         0.000000      0.000000     -0.018131
      4.00000      4.00000      2.82307         0.000000      0.000000      0.018131
 -----------------------------------------------------------------------------------
    total drift:                                0.000000      0.000000      0.000000


--------------------------------------------------------------------------------------------------------



  FREE ENERGIE OF THE ION-ELECTRON SYSTEM (eV)
  ---------------------------------------------------
  free  energy   TOTEN  =       -22.959579 eV

  energy  without entropy=      -22.959579  energy(sigma->0) =      -22.959579
 
 d Force = 0.5057415E-02[-0.255E-03, 0.104E-01]  d Energy = 0.5000600E-02 0.568E-04
 d Force = 0.4625457E+01[ 0.460E+01, 0.466E+01]  d Ewald  = 0.4625371E+01 0.862E-04


--------------------------------------------------------------------------------------------------------


    POTLOK:  cpu time    0.81: real time    0.81


--------------------------------------------------------------------------------------------------------


 Quasi-Newton relaxation of ions (Broydens 2nd method)
  g(Force)  = 0.317E-04   g(Stress)= 0.000E+00

 retain information from N=  1 steps
 eigenvalues of (default step * inverse Hessian matrix)
  average eigenvalue of G=   0.1928
 eigenvalue spectrum of G is  0.1928


--------------------------------------------------------------------------------------------------------


  
 reached required accuracy - stopping structural energy minimisation
 writing wavefunctions
     LOOP+:  cpu time    7.27: real time    8.04
    4ORBIT:  cpu time    0.00: real time    0.00

 total amount of memory used by VASP on root node    82051. kBytes
========================================================================

   base      :      30000. kBytes
   nonl-proj :       1323. kBytes
   fftplans  :      17864. kBytes
   grid      :      31769. kBytes
   one-center:          9. kBytes
   wavefun   :       1086. kBytes
 
  
  
 General timing and accounting informations for this job:
 ========================================================
  
                  Total CPU time used (sec):       36.238
                            User time (sec):       35.682
                          System time (sec):        0.557
                         Elapsed time (sec):       39.572
  
                   Maximum memory used (kb):           0.
                   Average memory used (kb):           0.
  
                          Minor page faults:       133186
                          Major page faults:            0
                 Voluntary context switches:         5705
