unknown system                          
   1.00000000000000     
     3.310000    0.000000    0.000000
     0.000000    3.310000    0.000000
     0.000000    0.000000    3.310000
   Ta
     2
Direct
  0.000000  0.000000  0.000000
  0.500000  0.500000  0.500000
 
   32   32   32
  15.528      15.128      14.149      13.097      12.393      12.110      11.986      11.685      11.051      10.186    
  9.3170      8.6320      8.1918      7.9541      7.8602      7.8428      7.8444      7.8428      7.8602      7.9541    
  8.1918      8.6320      9.3170      10.186      11.051      11.685      11.986      12.110      12.393      13.097    
  14.149      15.128      15.128      14.792      13.978      13.123      12.576      12.364      12.229      11.868    
  11.166      10.249      9.3536      8.6582      8.2144      7.9744      7.8785      7.8591      7.8600      7.8591    
  7.8785      7.9744      8.2144      8.6582      9.3536      10.249      11.166      11.868      12.229      12.364    
  12.576      13.123      13.978      14.792      14.149      13.978      13.587      13.231      13.070      13.023    
  12.842      12.316      11.438      10.398      9.4413      8.7260      8.2765      8.0320      7.9309      7.9064    
  7.9050      7.9064      7.9309      8.0320      8.2765      8.7260      9.4413      10.398      11.438      12.316    
  12.842      13.023      13.070      13.231      13.587      13.978      13.097      13.123      13.231      13.451    
  13.710      13.808      13.527      12.783      11.698      10.532      9.5281      8.8093      8.3630      8.1175    
  8.0107      7.9787      7.9740      7.9787      8.0107      8.1175      8.3630      8.8093      9.5281      10.532    
  11.698      12.783      13.527      13.808      13.710      13.451      13.231      13.123      12.393      12.576    
  13.070      13.710      14.234      14.365      13.938      12.996      11.768      10.550      9.5625      8.8800    
  8.4552      8.2177      8.1072      8.0668      8.0579      8.0668      8.1072      8.2177      8.4552      8.8800    
  9.5625      10.550      11.768      12.996      13.938      14.365      14.234      13.710      13.070      12.576    
  12.110      12.364      13.023      13.808      14.365      14.406      13.839      12.795      11.557      10.409    
  9.5209      8.9186      8.5369      8.3181      8.2069      8.1580      8.1446      8.1580      8.2069      8.3181    
  8.5369      8.9186      9.5209      10.409      11.557      12.795      13.839      14.406      14.365      13.808    
  13.023      12.364      11.986      12.229      12.842      13.527      13.938      13.839      13.201      12.199    
  11.100      10.135      9.4120      8.9171      8.5967      8.4044      8.2947      8.2379      8.2201      8.2379    
  8.2947      8.4044      8.5967      8.9171      9.4120      10.135      11.100      12.199      13.201      13.839    
  13.938      13.527      12.842      12.229      11.685      11.868      12.316      12.783      12.996      12.795    
  12.199      11.369      10.517      9.7973      9.2604      8.8807      8.6283      8.4641      8.3570      8.2933    
  8.2716      8.2933      8.3570      8.4641      8.6283      8.8807      9.2604      9.7973      10.517      11.369    
  12.199      12.795      12.996      12.783      12.316      11.868      11.051      11.166      11.438      11.698    
  11.768      11.557      11.100      10.517      9.9438      9.4637      9.0910      8.8204      8.6289      8.4884    
  8.3834      8.3145      8.2899      8.3145      8.3834      8.4884      8.6289      8.8204      9.0910      9.4637    
  9.9438      10.517      11.100      11.557      11.768      11.698      11.438      11.166      10.186      10.249    
  10.398      10.532      10.550      10.409      10.135      9.7973      9.4637      9.1679      8.9290      8.7445    
  8.5975      8.4732      8.3696      8.2977      8.2716      8.2977      8.3696      8.4732      8.5975      8.7445    
  8.9290      9.1679      9.4637      9.7973      10.135      10.409      10.550      10.532      10.398      10.249    
  9.3170      9.3536      9.4413      9.5281      9.5625      9.5209      9.4120      9.2604      9.0910      8.9290    
  8.7852      8.6567      8.5358      8.4202      8.3183      8.2463      8.2201      8.2463      8.3183      8.4202    
  8.5358      8.6567      8.7852      8.9290      9.0910      9.2604      9.4120      9.5209      9.5625      9.5281    
  9.4413      9.3536      8.6320      8.6582      8.7260      8.8093      8.8800      8.9186      8.9171      8.8807    
  8.8204      8.7445      8.6567      8.5574      8.4484      8.3374      8.2386      8.1695      8.1446      8.1695    
  8.2386      8.3374      8.4484      8.5574      8.6567      8.7445      8.8204      8.8807      8.9171      8.9186    
  8.8800      8.8093      8.7260      8.6582      8.1918      8.2144      8.2765      8.3630      8.4552      8.5369    
  8.5967      8.6283      8.6289      8.5975      8.5358      8.4484      8.3445      8.2378      8.1445      8.0806    
  8.0579      8.0806      8.1445      8.2378      8.3445      8.4484      8.5358      8.5975      8.6289      8.6283    
  8.5967      8.5369      8.4552      8.3630      8.2765      8.2144      7.9541      7.9744      8.0320      8.1175    
  8.2177      8.3181      8.4044      8.4641      8.4884      8.4732      8.4202      8.3374      8.2378      8.1371    
  8.0514      7.9941      7.9740      7.9941      8.0514      8.1371      8.2378      8.3374      8.4202      8.4732    
  8.4884      8.4641      8.4044      8.3181      8.2177      8.1175      8.0320      7.9744      7.8602      7.8785    
  7.9309      8.0107      8.1072      8.2069      8.2947      8.3570      8.3834      8.3696      8.3183      8.2386    
  8.1445      8.0514      7.9738      7.9227      7.9050      7.9227      7.9738      8.0514      8.1445      8.2386    
  8.3183      8.3696      8.3834      8.3570      8.2947      8.2069      8.1072      8.0107      7.9309      7.8785    
  7.8428      7.8591      7.9064      7.9787      8.0668      8.1580      8.2379      8.2933      8.3145      8.2977    
  8.2463      8.1695      8.0806      7.9941      7.9227      7.8761      7.8600      7.8761      7.9227      7.9941    
  8.0806      8.1695      8.2463      8.2977      8.3145      8.2933      8.2379      8.1580      8.0668      7.9787    
  7.9064      7.8591      7.8444      7.8600      7.9050      7.9740      8.0579      8.1446      8.2201      8.2716    
  8.2899      8.2716      8.2201      8.1446      8.0579      7.9740      7.9050      7.8600      7.8444      7.8600    
  7.9050      7.9740      8.0579      8.1446      8.2201      8.2716      8.2899      8.2716      8.2201      8.1446    
  8.0579      7.9740      7.9050      7.8600      7.8428      7.8591      7.9064      7.9787      8.0668      8.1580    
  8.2379      8.2933      8.3145      8.2977      8.2463      8.1695      8.0806      7.9941      7.9227      7.8761    
  7.8600      7.8761      7.9227      7.9941      8.0806      8.1695      8.2463      8.2977      8.3145      8.2933    
  8.2379      8.1580      8.0668      7.9787      7.9064      7.8591      7.8602      7.8785      7.9309      8.0107    
  8.1072      8.2069      8.2947      8.3570      8.3834      8.3696      8.3183      8.2386      8.1445      8.0514    
  7.9738      7.9227      7.9050      7.9227      7.9738      8.0514      8.1445      8.2386      8.3183      8.3696    
  8.3834      8.3570      8.2947      8.2069      8.1072      8.0107      7.9309      7.8785      7.9541      7.9744    
  8.0320      8.1175      8.2177      8.3181      8.4044      8.4641      8.4884      8.4732      8.4202      8.3374    
  8.2378      8.1371      8.0514      7.9941      7.9740      7.9941      8.0514      8.1371      8.2378      8.3374    
  8.4202      8.4732      8.4884      8.4641      8.4044      8.3181      8.2177      8.1175      8.0320      7.9744    
  8.1918      8.2144      8.2765      8.3630      8.4552      8.5369      8.5967      8.6283      8.6289      8.5975    
  8.5358      8.4484      8.3445      8.2378      8.1445      8.0806      8.0579      8.0806      8.1445      8.2378    
  8.3445      8.4484      8.5358      8.5975      8.6289      8.6283      8.5967      8.5369      8.4552      8.3630    
  8.2765      8.2144      8.6320      8.6582      8.7260      8.8093      8.8800      8.9186      8.9171      8.8807    
  8.8204      8.7445      8.6567      8.5574      8.4484      8.3374      8.2386      8.1695      8.1446      8.1695    
  8.2386      8.3374      8.4484      8.5574      8.6567      8.7445      8.8204      8.8807      8.9171      8.9186    
  8.8800      8.8093      8.7260      8.6582      9.3170      9.3536      9.4413      9.5281      9.5625      9.5209    
  9.4120      9.2604      9.0910      8.9290      8.7852      8.6567      8.5358      8.4202      8.3183      8.2463    
  8.2201      8.2463      8.3183      8.4202      8.5358      8.6567      8.7852      8.9290      9.0910      9.2604    
  9.4120      9.5209      9.5625      9.5281      9.4413      9.3536      10.186      10.249      10.398      10.532    
  10.550      10.409      10.135      9.7973      9.4637      9.1679      8.9290      8.7445      8.5975      8.4732    
  8.3696      8.2977      8.2716      8.2977      8.3696      8.4732      8.5975      8.7445      8.9290      9.1679    
  9.4637      9.7973      10.135      10.409      10.550      10.532      10.398      10.249      11.051      11.166    
  11.438      11.698      11.768      11.557      11.100      10.517      9.9438      9.4637      9.0910      8.8204    
  8.6289      8.4884      8.3834      8.3145      8.2899      8.3145      8.3834      8.4884      8.6289      8.8204    
  9.0910      9.4637      9.9438      10.517      11.100      11.557      11.768      11.698      11.438      11.166    
  11.685      11.868      12.316      12.783      12.996      12.795      12.199      11.369      10.517      9.7973    
  9.2604      8.8807      8.6283      8.4641      8.3570      8.2933      8.2716      8.2933      8.3570      8.4641    
  8.6283      8.8807      9.2604      9.7973      10.517      11.369      12.199      12.795      12.996      12.783    
  12.316      11.868      11.986      12.229      12.842      13.527      13.938      13.839      13.201      12.199    
  11.100      10.135      9.4120      8.9171      8.5967      8.4044      8.2947      8.2379      8.2201      8.2379    
  8.2947      8.4044      8.5967      8.9171      9.4120      10.135      11.100      12.199      13.201      13.839    
  13.938      13.527      12.842      12.229      12.110      12.364      13.023      13.808      14.365      14.406    
  13.839      12.795      11.557      10.409      9.5209      8.9186      8.5369      8.3181      8.2069      8.1580    
  8.1446      8.1580      8.2069      8.3181      8.5369      8.9186      9.5209      10.409      11.557      12.795    
  13.839      14.406      14.365      13.808      13.023      12.364      12.393      12.576      13.070      13.710    
  14.234      14.365      13.938      12.996      11.768      10.550      9.5625      8.8800      8.4552      8.2177    
  8.1072      8.0668      8.0579      8.0668      8.1072      8.2177      8.4552      8.8800      9.5625      10.550    
  11.768      12.996      13.938      14.365      14.234      13.710      13.070      12.576      13.097      13.123    
  13.231      13.451      13.710      13.808      13.527      12.783      11.698      10.532      9.5281      8.8093    
  8.3630      8.1175      8.0107      7.9787      7.9740      7.9787      8.0107      8.1175      8.3630      8.8093    
  9.5281      10.532      11.698      12.783      13.527      13.808      13.710      13.451      13.231      13.123    
  14.149      13.978      13.587      13.231      13.070      13.023      12.842      12.316      11.438      10.398    
  9.4413      8.7260      8.2765      8.0320      7.9309      7.9064      7.9050      7.9064      7.9309      8.0320    
  8.2765      8.7260      9.4413      10.398      11.438      12.316      12.842      13.023      13.070      13.231    
  13.587      13.978      15.128      14.792      13.978      13.123      12.576      12.364      12.229      11.868    
  11.166      10.249      9.3536      8.6582      8.2144      7.9744      7.8785      7.8591      7.8600      7.8591    
  7.8785      7.9744      8.2144      8.6582      9.3536      10.249      11.166      11.868      12.229      12.364    
  12.576      13.123      13.978      14.792      15.128      14.792      13.978      13.123      12.576      12.364    
  12.229      11.868      11.166      10.249      9.3536      8.6582      8.2144      7.9744      7.8785      7.8591    
  7.8600      7.8591      7.8785      7.9744      8.2144      8.6582      9.3536      10.249      11.166      11.868    
  12.229      12.364      12.576      13.123      13.978      14.792      14.792      14.514      13.851      13.174    
  12.764      12.611      12.459      12.037      11.270      10.307      9.3868      8.6830      8.2366      7.9948    
  7.8971      7.8760      7.8761      7.8760      7.8971      7.9948      8.2366      8.6830      9.3868      10.307    
  11.270      12.037      12.459      12.611      12.764      13.174      13.851      14.514      13.978      13.851    
  13.570      13.340      13.268      13.246      13.034      12.448      11.515      10.439      9.4661      8.7474    
  8.2977      8.0528      7.9507      7.9248      7.9227      7.9248      7.9507      8.0528      8.2977      8.7474    
  9.4661      10.439      11.515      12.448      13.034      13.246      13.268      13.340      13.570      13.851    
  13.123      13.174      13.340      13.619      13.906      13.991      13.664      12.865      11.740      10.552    
  9.5435      8.8273      8.3835      8.1393      8.0323      7.9994      7.9941      7.9994      8.0323      8.1393    
  8.3835      8.8273      9.5435      10.552      11.740      12.865      13.664      13.991      13.906      13.619    
  13.340      13.174      12.576      12.764      13.268      13.906      14.407      14.494      14.016      13.031    
  11.778      10.555      9.5717      8.8964      8.4762      8.2412      8.1310      8.0900      8.0806      8.0900    
  8.1310      8.2412      8.4762      8.8964      9.5717      10.555      11.778      13.031      14.016      14.494    
  14.407      13.906      13.268      12.764      12.364      12.611      13.246      13.991      14.494      14.480    
  13.866      12.795      11.549      10.406      9.5291      8.9358      8.5596      8.3436      8.2328      8.1833    
  8.1695      8.1833      8.2328      8.3436      8.5596      8.9358      9.5291      10.406      11.549      12.795    
  13.866      14.480      14.494      13.991      13.246      12.611      12.229      12.459      13.034      13.664    
  14.016      13.866      13.196      12.182      11.087      10.134      9.4235      8.9369      8.6217      8.4316    
  8.3221      8.2645      8.2463      8.2645      8.3221      8.4316      8.6217      8.9369      9.4235      10.134    
  11.087      12.182      13.196      13.866      14.016      13.664      13.034      12.459      11.868      12.037    
  12.448      12.865      13.031      12.795      12.182      11.352      10.510      9.8035      9.2768      8.9039    
  8.6553      8.4921      8.3845      8.3198      8.2977      8.3198      8.3845      8.4921      8.6553      8.9039    
  9.2768      9.8035      10.510      11.352      12.182      12.795      13.031      12.865      12.448      12.037    
  11.166      11.270      11.515      11.740      11.778      11.549      11.087      10.510      9.9479      9.4779    
  9.1122      8.8461      8.6564      8.5157      8.4095      8.3394      8.3145      8.3394      8.4095      8.5157    
  8.6564      8.8461      9.1122      9.4779      9.9479      10.510      11.087      11.549      11.778      11.740    
  11.515      11.270      10.249      10.307      10.439      10.552      10.555      10.406      10.134      9.8035    
  9.4779      9.1884      8.9536      8.7710      8.6238      8.4980      8.3929      8.3198      8.2933      8.3198    
  8.3929      8.4980      8.6238      8.7710      8.9536      9.1884      9.4779      9.8035      10.134      10.406    
  10.555      10.552      10.439      10.307      9.3536      9.3868      9.4661      9.5435      9.5717      9.5291    
  9.4235      9.2768      9.1122      8.9536      8.8112      8.6820      8.5592      8.4414      8.3376      8.2645    
  8.2379      8.2645      8.3376      8.4414      8.5592      8.6820      8.8112      8.9536      9.1122      9.2768    
  9.4235      9.5291      9.5717      9.5435      9.4661      9.3868      8.6582      8.6830      8.7474      8.8273    
  8.8964      8.9358      8.9369      8.9039      8.8461      8.7710      8.6820      8.5801      8.4681      8.3544    
  8.2536      8.1833      8.1580      8.1833      8.2536      8.3544      8.4681      8.5801      8.6820      8.7710    
  8.8461      8.9039      8.9369      8.9358      8.8964      8.8273      8.7474      8.6830      8.2144      8.2366    
  8.2977      8.3835      8.4762      8.5596      8.6217      8.6553      8.6564      8.6238      8.5592      8.4681    
  8.3605      8.2506      8.1551      8.0900      8.0668      8.0900      8.1551      8.2506      8.3605      8.4681    
  8.5592      8.6238      8.6564      8.6553      8.6217      8.5596      8.4762      8.3835      8.2977      8.2366    
  7.9744      7.9948      8.0528      8.1393      8.2412      8.3436      8.4316      8.4921      8.5157      8.4980    
  8.4414      8.3544      8.2506      8.1465      8.0583      7.9994      7.9787      7.9994      8.0583      8.1465    
  8.2506      8.3544      8.4414      8.4980      8.5157      8.4921      8.4316      8.3436      8.2412      8.1393    
  8.0528      7.9948      7.8785      7.8971      7.9507      8.0323      8.1310      8.2328      8.3221      8.3845    
  8.4095      8.3929      8.3376      8.2536      8.1551      8.0583      7.9777      7.9248      7.9064      7.9248    
  7.9777      8.0583      8.1551      8.2536      8.3376      8.3929      8.4095      8.3845      8.3221      8.2328    
  8.1310      8.0323      7.9507      7.8971      7.8591      7.8760      7.9248      7.9994      8.0900      8.1833    
  8.2645      8.3198      8.3394      8.3198      8.2645      8.1833      8.0900      7.9994      7.9248      7.8760    
  7.8591      7.8760      7.9248      7.9994      8.0900      8.1833      8.2645      8.3198      8.3394      8.3198    
  8.2645      8.1833      8.0900      7.9994      7.9248      7.8760      7.8600      7.8761      7.9227      7.9941    
  8.0806      8.1695      8.2463      8.2977      8.3145      8.2933      8.2379      8.1580      8.0668      7.9787    
  7.9064      7.8591      7.8428      7.8591      7.9064      7.9787      8.0668      8.1580      8.2379      8.2933    
  8.3145      8.2977      8.2463      8.1695      8.0806      7.9941      7.9227      7.8761      7.8591      7.8760    
  7.9248      7.9994      8.0900      8.1833      8.2645      8.3198      8.3394      8.3198      8.2645      8.1833    
  8.0900      7.9994      7.9248      7.8760      7.8591      7.8760      7.9248      7.9994      8.0900      8.1833    
  8.2645      8.3198      8.3394      8.3198      8.2645      8.1833      8.0900      7.9994      7.9248      7.8760    
  7.8785      7.8971      7.9507      8.0323      8.1310      8.2328      8.3221      8.3845      8.4095      8.3929    
  8.3376      8.2536      8.1551      8.0583      7.9777      7.9248      7.9064      7.9248      7.9777      8.0583    
  8.1551      8.2536      8.3376      8.3929      8.4095      8.3845      8.3221      8.2328      8.1310      8.0323    
  7.9507      7.8971      7.9744      7.9948      8.0528      8.1393      8.2412      8.3436      8.4316      8.4921    
  8.5157      8.4980      8.4414      8.3544      8.2506      8.1465      8.0583      7.9994      7.9787      7.9994    
  8.0583      8.1465      8.2506      8.3544      8.4414      8.4980      8.5157      8.4921      8.4316      8.3436    
  8.2412      8.1393      8.0528      7.9948      8.2144      8.2366      8.2977      8.3835      8.4762      8.5596    
  8.6217      8.6553      8.6564      8.6238      8.5592      8.4681      8.3605      8.2506      8.1551      8.0900    
  8.0668      8.0900      8.1551      8.2506      8.3605      8.4681      8.5592      8.6238      8.6564      8.6553    
  8.6217      8.5596      8.4762      8.3835      8.2977      8.2366      8.6582      8.6830      8.7474      8.8273    
  8.8964      8.9358      8.9369      8.9039      8.8461      8.7710      8.6820      8.5801      8.4681      8.3544    
  8.2536      8.1833      8.1580      8.1833      8.2536      8.3544      8.4681      8.5801      8.6820      8.7710    
  8.8461      8.9039      8.9369      8.9358      8.8964      8.8273      8.7474      8.6830      9.3536      9.3868    
  9.4661      9.5435      9.5717      9.5291      9.4235      9.2768      9.1122      8.9536      8.8112      8.6820    
  8.5592      8.4414      8.3376      8.2645      8.2379      8.2645      8.3376      8.4414      8.5592      8.6820    
  8.8112      8.9536      9.1122      9.2768      9.4235      9.5291      9.5717      9.5435      9.4661      9.3868    
  10.249      10.307      10.439      10.552      10.555      10.406      10.134      9.8035      9.4779      9.1884    
  8.9536      8.7710      8.6238      8.4980      8.3929      8.3198      8.2933      8.3198      8.3929      8.4980    
  8.6238      8.7710      8.9536      9.1884      9.4779      9.8035      10.134      10.406      10.555      10.552    
  10.439      10.307      11.166      11.270      11.515      11.740      11.778      11.549      11.087      10.510    
  9.9479      9.4779      9.1122      8.8461      8.6564      8.5157      8.4095      8.3394      8.3145      8.3394    
  8.4095      8.5157      8.6564      8.8461      9.1122      9.4779      9.9479      10.510      11.087      11.549    
  11.778      11.740      11.515      11.270      11.868      12.037      12.448      12.865      13.031      12.795    
  12.182      11.352      10.510      9.8035      9.2768      8.9039      8.6553      8.4921      8.3845      8.3198    
  8.2977      8.3198      8.3845      8.4921      8.6553      8.9039      9.2768      9.8035      10.510      11.352    
  12.182      12.795      13.031      12.865      12.448      12.037      12.229      12.459      13.034      13.664    
  14.016      13.866      13.196      12.182      11.087      10.134      9.4235      8.9369      8.6217      8.4316    
  8.3221      8.2645      8.2463      8.2645      8.3221      8.4316      8.6217      8.9369      9.4235      10.134    
  11.087      12.182      13.196      13.866      14.016      13.664      13.034      12.459      12.364      12.611    
  13.246      13.991      14.494      14.480      13.866      12.795      11.549      10.406      9.5291      8.9358    
  8.5596      8.3436      8.2328      8.1833      8.1695      8.1833      8.2328      8.3436      8.5596      8.9358    
  9.5291      10.406      11.549      12.795      13.866      14.480      14.494      13.991      13.246      12.611    
  12.576      12.764      13.268      13.906      14.407      14.494      14.016      13.031      11.778      10.555    
  9.5717      8.8964      8.4762      8.2412      8.1310      8.0900      8.0806      8.0900      8.1310      8.2412    
  8.4762      8.8964      9.5717      10.555      11.778      13.031      14.016      14.494      14.407      13.906    
  13.268      12.764      13.123      13.174      13.340      13.619      13.906      13.991      13.664      12.865    
  11.740      10.552      9.5435      8.8273      8.3835      8.1393      8.0323      7.9994      7.9941      7.9994    
  8.0323      8.1393      8.3835      8.8273      9.5435      10.552      11.740      12.865      13.664      13.991    
  13.906      13.619      13.340      13.174      13.978      13.851      13.570      13.340      13.268      13.246    
  13.034      12.448      11.515      10.439      9.4661      8.7474      8.2977      8.0528      7.9507      7.9248    
  7.9227      7.9248      7.9507      8.0528      8.2977      8.7474      9.4661      10.439      11.515      12.448    
  13.034      13.246      13.268      13.340      13.570      13.851      14.792      14.514      13.851      13.174    
  12.764      12.611      12.459      12.037      11.270      10.307      9.3868      8.6830      8.2366      7.9948    
  7.8971      7.8760      7.8761      7.8760      7.8971      7.9948      8.2366      8.6830      9.3868      10.307    
  11.270      12.037      12.459      12.611      12.764      13.174      13.851      14.514      14.149      13.978    
  13.587      13.231      13.070      13.023      12.842      12.316      11.438      10.398      9.4413      8.7260    
  8.2765      8.0320      7.9309      7.9064      7.9050      7.9064      7.9309      8.0320      8.2765      8.7260    
  9.4413      10.398      11.438      12.316      12.842      13.023      13.070      13.231      13.587      13.978    
  13.978      13.851      13.570      13.340      13.268      13.246      13.034      12.448      11.515      10.439    
  9.4661      8.7474      8.2977      8.0528      7.9507      7.9248      7.9227      7.9248      7.9507      8.0528    
  8.2977      8.7474      9.4661      10.439      11.515      12.448      13.034      13.246      13.268      13.340    
  13.570      13.851      13.587      13.570      13.565      13.645      13.784      13.809      13.502      12.761    
  11.688      10.528      9.5246      8.8036      8.3566      8.1122      8.0075      7.9777      7.9738      7.9777    
  8.0075      8.1122      8.3566      8.8036      9.5246      10.528      11.688      12.761      13.502      13.809    
  13.784      13.645      13.565      13.570      13.231      13.340      13.645      14.060      14.403      14.436    
  13.983      13.047      11.822      10.591      9.5791      8.8755      8.4412      8.2015      8.0940      8.0583    
  8.0514      8.0583      8.0940      8.2015      8.4412      8.8755      9.5791      10.591      11.822      13.047    
  13.983      14.436      14.403      14.060      13.645      13.340      13.070      13.268      13.784      14.403    
  14.829      14.792      14.178      13.088      11.783      10.555      9.5929      8.9412      8.5354      8.3077    
  8.1983      8.1551      8.1445      8.1551      8.1983      8.3077      8.5354      8.9412      9.5929      10.555    
  11.783      13.088      14.178      14.792      14.829      14.403      13.784      13.268      13.023      13.246    
  13.809      14.436      14.792      14.629      13.898      12.765      11.509      10.391      9.5492      8.9829    
  8.6231      8.4150      8.3051      8.2536      8.2386      8.2536      8.3051      8.4150      8.6231      8.9829    
  9.5492      10.391      11.509      12.765      13.898      14.629      14.792      14.436      13.809      13.246    
  12.842      13.034      13.502      13.983      14.178      13.898      13.150      12.114      11.040      10.126    
  9.4533      8.9912      8.6910      8.5071      8.3975      8.3376      8.3183      8.3376      8.3975      8.5071    
  8.6910      8.9912      9.4533      10.126      11.040      12.114      13.150      13.898      14.178      13.983    
  13.502      13.034      12.316      12.448      12.761      13.047      13.088      12.765      12.114      11.292    
  10.485      9.8176      9.3203      8.9671      8.7293      8.5693      8.4602      8.3929      8.3696      8.3929    
  8.4602      8.5693      8.7293      8.9671      9.3203      9.8176      10.485      11.292      12.114      12.765    
  13.088      13.047      12.761      12.448      11.438      11.515      11.688      11.822      11.783      11.509    
  11.040      10.485      9.9557      9.5145      9.1695      8.9164      8.7321      8.5913      8.4824      8.4095    
  8.3834      8.4095      8.4824      8.5913      8.7321      8.9164      9.1695      9.5145      9.9557      10.485    
  11.040      11.509      11.783      11.822      11.688      11.515      10.398      10.439      10.528      10.591    
  10.555      10.391      10.126      9.8176      9.5145      9.2433      9.0211      8.8441      8.6972      8.5688    
  8.4602      8.3845      8.3570      8.3845      8.4602      8.5688      8.6972      8.8441      9.0211      9.2433    
  9.5145      9.8176      10.126      10.391      10.555      10.591      10.528      10.439      9.4413      9.4661    
  9.5246      9.5791      9.5929      9.5492      9.4533      9.3203      9.1695      9.0211      8.8831      8.7534    
  8.6270      8.5049      8.3975      8.3221      8.2947      8.3221      8.3975      8.5049      8.6270      8.7534    
  8.8831      9.0211      9.1695      9.3203      9.4533      9.5492      9.5929      9.5791      9.5246      9.4661    
  8.7260      8.7474      8.8036      8.8755      8.9412      8.9829      8.9912      8.9671      8.9164      8.8441    
  8.7534      8.6466      8.5286      8.4095      8.3051      8.2328      8.2069      8.2328      8.3051      8.4095    
  8.5286      8.6466      8.7534      8.8441      8.9164      8.9671      8.9912      8.9829      8.9412      8.8755    
  8.8036      8.7474      8.2765      8.2977      8.3566      8.4412      8.5354      8.6231      8.6910      8.7293    
  8.7321      8.6972      8.6270      8.5286      8.4137      8.2978      8.1983      8.1310      8.1072      8.1310    