unknown system                          
   1.00000000000000     
     3.310000    0.000000    0.000000
     0.000000    3.310000    0.000000
     0.000000    0.000000    3.310000
   Ta
     2
Direct
  0.000000  0.000000  0.000000
  0.500000  0.500000  0.500000
 
   32   32   32
 0.15528449866E+02 0.15127797427E+02 0.14149130444E+02 0.13096607927E+02 0.12393068440E+02
 0.12109995121E+02 0.11986388178E+02 0.11684695926E+02 0.11051251546E+02 0.10185760248E+02
 0.93169563749E+01 0.86319766855E+01 0.81917603051E+01 0.79541308083E+01 0.78602331817E+01
 0.78427626149E+01 0.78444063690E+01 0.78427626149E+01 0.78602331817E+01 0.79541308083E+01
 0.81917603051E+01 0.86319766855E+01 0.93169563749E+01 0.10185760248E+02 0.11051251546E+02
 0.11684695926E+02 0.11986388178E+02 0.12109995121E+02 0.12393068440E+02 0.13096607927E+02
 0.14149130444E+02 0.15127797427E+02 0.15127797427E+02 0.14791517592E+02 0.13978103755E+02
 0.13123086770E+02 0.12575773152E+02 0.12364426742E+02 0.12229490927E+02 0.11867547504E+02
 0.11165621248E+02 0.10249422158E+02 0.93535543579E+01 0.86581833487E+01 0.82144007961E+01
 0.79744326070E+01 0.78784720550E+01 0.78591272493E+01 0.78599826615E+01 0.78591272493E+01
 0.78784720550E+01 0.79744326070E+01 0.82144007961E+01 0.86581833487E+01 0.93535543579E+01
 0.10249422158E+02 0.11165621248E+02 0.11867547504E+02 0.12229490927E+02 0.12364426742E+02
 0.12575773152E+02 0.13123086770E+02 0.13978103755E+02 0.14791517592E+02 0.14149130444E+02
 0.13978103755E+02 0.13586979755E+02 0.13231289980E+02 0.13069987910E+02 0.13023493352E+02
 0.12842320375E+02 0.12316257990E+02 0.11438322336E+02 0.10398293401E+02 0.94413376760E+01
 0.87260387036E+01 0.82765079833E+01 0.80319690038E+01 0.79308833686E+01 0.79063506287E+01
 0.79049603914E+01 0.79063506287E+01 0.79308833686E+01 0.80319690038E+01 0.82765079833E+01
 0.87260387036E+01 0.94413376760E+01 0.10398293401E+02 0.11438322336E+02 0.12316257990E+02
 0.12842320375E+02 0.13023493352E+02 0.13069987910E+02 0.13231289980E+02 0.13586979755E+02
 0.13978103755E+02 0.13096607927E+02 0.13123086770E+02 0.13231289980E+02 0.13451099554E+02
 0.13709898978E+02 0.13808353795E+02 0.13527040949E+02 0.12782510270E+02 0.11698057682E+02
 0.10531716177E+02 0.95280691263E+01 0.88093479653E+01 0.83629678158E+01 0.81174581502E+01
 0.80107059008E+01 0.79787499534E+01 0.79739675655E+01 0.79787499534E+01 0.80107059008E+01
 0.81174581502E+01 0.83629678158E+01 0.88093479653E+01 0.95280691263E+01 0.10531716177E+02
 0.11698057682E+02 0.12782510270E+02 0.13527040949E+02 0.13808353795E+02 0.13709898978E+02
 0.13451099554E+02 0.13231289980E+02 0.13123086770E+02 0.12393068440E+02 0.12575773152E+02
 0.13069987910E+02 0.13709898978E+02 0.14233984684E+02 0.14364936080E+02 0.13938172385E+02
 0.12995669842E+02 0.11767800906E+02 0.10550091963E+02 0.95625185164E+01 0.88799755048E+01
 0.84552036457E+01 0.82177471476E+01 0.81072414580E+01 0.80668469364E+01 0.80579263129E+01
 0.80668469364E+01 0.81072414580E+01 0.82177471476E+01 0.84552036457E+01 0.88799755048E+01
 0.95625185164E+01 0.10550091963E+02 0.11767800906E+02 0.12995669842E+02 0.13938172385E+02
 0.14364936080E+02 0.14233984684E+02 0.13709898978E+02 0.13069987910E+02 0.12575773152E+02
 0.12109995121E+02 0.12364426742E+02 0.13023493352E+02 0.13808353795E+02 0.14364936080E+02
 0.14406475747E+02 0.13838760364E+02 0.12795367297E+02 0.11557323071E+02 0.10408966642E+02
 0.95209404454E+01 0.89185721618E+01 0.85368591769E+01 0.83181455535E+01 0.82068772217E+01
 0.81579820194E+01 0.81445908245E+01 0.81579820194E+01 0.82068772217E+01 0.83181455535E+01
 0.85368591769E+01 0.89185721618E+01 0.95209404454E+01 0.10408966642E+02 0.11557323071E+02
 0.12795367297E+02 0.13838760364E+02 0.14406475747E+02 0.14364936080E+02 0.13808353795E+02
 0.13023493352E+02 0.12364426742E+02 0.11986388178E+02 0.12229490927E+02 0.12842320375E+02
 0.13527040949E+02 0.13938172385E+02 0.13838760364E+02 0.13201063143E+02 0.12198503686E+02
 0.11099667053E+02 0.10134706829E+02 0.94119933788E+01 0.89171057600E+01 0.85966780966E+01
 0.84043783559E+01 0.82947467797E+01 0.82379076133E+01 0.82201302920E+01 0.82379076133E+01
 0.82947467797E+01 0.84043783559E+01 0.85966780966E+01 0.89171057600E+01 0.94119933788E+01
 0.10134706829E+02 0.11099667053E+02 0.12198503686E+02 0.13201063143E+02 0.13838760364E+02
 0.13938172385E+02 0.13527040949E+02 0.12842320375E+02 0.12229490927E+02 0.11684695926E+02
 0.11867547504E+02 0.12316257990E+02 0.12782510270E+02 0.12995669842E+02 0.12795367297E+02
 0.12198503686E+02 0.11368734684E+02 0.10516684360E+02 0.97972998662E+01 0.92604088250E+01
 0.88807434517E+01 0.86283429909E+01 0.84641204181E+01 0.83570103852E+01 0.82932791191E+01
 0.82716403252E+01 0.82932791191E+01 0.83570103852E+01 0.84641204181E+01 0.86283429909E+01
 0.88807434517E+01 0.92604088250E+01 0.97972998662E+01 0.10516684360E+02 0.11368734684E+02
 0.12198503686E+02 0.12795367297E+02 0.12995669842E+02 0.12782510270E+02 0.12316257990E+02
 0.11867547504E+02 0.11051251546E+02 0.11165621248E+02 0.11438322336E+02 0.11698057682E+02
 0.11767800906E+02 0.11557323071E+02 0.11099667053E+02 0.10516684360E+02 0.99437537946E+01
 0.94636890809E+01 0.90909685995E+01 0.88203835180E+01 0.86288904489E+01 0.84884291038E+01
 0.83834357371E+01 0.83144534716E+01 0.82899223918E+01 0.83144534716E+01 0.83834357371E+01
 0.84884291038E+01 0.86288904489E+01 0.88203835180E+01 0.90909685995E+01 0.94636890809E+01
 0.99437537946E+01 0.10516684360E+02 0.11099667053E+02 0.11557323071E+02 0.11767800906E+02
 0.11698057682E+02 0.11438322336E+02 0.11165621248E+02 0.10185760248E+02 0.10249422158E+02
 0.10398293401E+02 0.10531716177E+02 0.10550091963E+02 0.10408966642E+02 0.10134706829E+02
 0.97972998662E+01 0.94636890809E+01 0.91679339736E+01 0.89289592007E+01 0.87445400347E+01
 0.85975396920E+01 0.84731866600E+01 0.83696470682E+01 0.82977356300E+01 0.82716403252E+01
 0.82977356300E+01 0.83696470682E+01 0.84731866600E+01 0.85975396920E+01 0.87445400347E+01
 0.89289592007E+01 0.91679339736E+01 0.94636890809E+01 0.97972998662E+01 0.10134706829E+02
 0.10408966642E+02 0.10550091963E+02 0.10531716177E+02 0.10398293401E+02 0.10249422158E+02
 0.93169563749E+01 0.93535543579E+01 0.94413376760E+01 0.95280691263E+01 0.95625185164E+01
 0.95209404454E+01 0.94119933788E+01 0.92604088250E+01 0.90909685995E+01 0.89289592007E+01
 0.87852343593E+01 0.86567182119E+01 0.85357743418E+01 0.84202029742E+01 0.83182935682E+01
 0.82463103718E+01 0.82201302920E+01 0.82463103718E+01 0.83182935682E+01 0.84202029742E+01
 0.85357743418E+01 0.86567182119E+01 0.87852343593E+01 0.89289592007E+01 0.90909685995E+01
 0.92604088250E+01 0.94119933788E+01 0.95209404454E+01 0.95625185164E+01 0.95280691263E+01
 0.94413376760E+01 0.93535543579E+01 0.86319766855E+01 0.86581833487E+01 0.87260387036E+01
 0.88093479653E+01 0.88799755048E+01 0.89185721618E+01 0.89171057600E+01 0.88807434517E+01
 0.88203835180E+01 0.87445400347E+01 0.86567182119E+01 0.85573533928E+01 0.84483840487E+01
 0.83374062637E+01 0.82386228285E+01 0.81695103132E+01 0.81445908245E+01 0.81695103132E+01
 0.82386228285E+01 0.83374062637E+01 0.84483840487E+01 0.85573533928E+01 0.86567182119E+01
 0.87445400347E+01 0.88203835180E+01 0.88807434517E+01 0.89171057600E+01 0.89185721618E+01
 0.88799755048E+01 0.88093479653E+01 0.87260387036E+01 0.86581833487E+01 0.81917603051E+01
 0.82144007961E+01 0.82765079833E+01 0.83629678158E+01 0.84552036457E+01 0.85368591769E+01
 0.85966780966E+01 0.86283429909E+01 0.86288904489E+01 0.85975396920E+01 0.85357743418E+01
 0.84483840487E+01 0.83445261621E+01 0.82377732589E+01 0.81444915973E+01 0.80806428773E+01
 0.80579263129E+01 0.80806428773E+01 0.81444915973E+01 0.82377732589E+01 0.83445261621E+01
 0.84483840487E+01 0.85357743418E+01 0.85975396920E+01 0.86288904489E+01 0.86283429909E+01
 0.85966780966E+01 0.85368591769E+01 0.84552036457E+01 0.83629678158E+01 0.82765079833E+01
 0.82144007961E+01 0.79541308083E+01 0.79744326070E+01 0.80319690038E+01 0.81174581502E+01
 0.82177471476E+01 0.83181455535E+01 0.84043783559E+01 0.84641204181E+01 0.84884291038E+01
 0.84731866600E+01 0.84202029742E+01 0.83374062637E+01 0.82377732589E+01 0.81371398288E+01
 0.80514483679E+01 0.79941079178E+01 0.79739675655E+01 0.79941079178E+01 0.80514483679E+01
 0.81371398288E+01 0.82377732589E+01 0.83374062637E+01 0.84202029742E+01 0.84731866600E+01
 0.84884291038E+01 0.84641204181E+01 0.84043783559E+01 0.83181455535E+01 0.82177471476E+01
 0.81174581502E+01 0.80319690038E+01 0.79744326070E+01 0.78602331817E+01 0.78784720550E+01
 0.79308833686E+01 0.80107059008E+01 0.81072414580E+01 0.82068772217E+01 0.82947467797E+01
 0.83570103852E+01 0.83834357371E+01 0.83696470682E+01 0.83182935682E+01 0.82386228285E+01
 0.81444915973E+01 0.80514483679E+01 0.79738418414E+01 0.79227473096E+01 0.79049603914E+01
 0.79227473096E+01 0.79738418414E+01 0.80514483679E+01 0.81444915973E+01 0.82386228285E+01
 0.83182935682E+01 0.83696470682E+01 0.83834357371E+01 0.83570103852E+01 0.82947467797E+01
 0.82068772217E+01 0.81072414580E+01 0.80107059008E+01 0.79308833686E+01 0.78784720550E+01
 0.78427626149E+01 0.78591272493E+01 0.79063506287E+01 0.79787499534E+01 0.80668469364E+01
 0.81579820194E+01 0.82379076133E+01 0.82932791191E+01 0.83144534716E+01 0.82977356300E+01
 0.82463103718E+01 0.81695103132E+01 0.80806428773E+01 0.79941079178E+01 0.79227473096E+01
 0.78761396446E+01 0.78599826615E+01 0.78761396446E+01 0.79227473096E+01 0.79941079178E+01
 0.80806428773E+01 0.81695103132E+01 0.82463103718E+01 0.82977356300E+01 0.83144534716E+01
 0.82932791191E+01 0.82379076133E+01 0.81579820194E+01 0.80668469364E+01 0.79787499534E+01
 0.79063506287E+01 0.78591272493E+01 0.78444063690E+01 0.78599826615E+01 0.79049603914E+01
 0.79739675655E+01 0.80579263129E+01 0.81445908245E+01 0.82201302920E+01 0.82716403252E+01
 0.82899223918E+01 0.82716403252E+01 0.82201302920E+01 0.81445908245E+01 0.80579263129E+01
 0.79739675655E+01 0.79049603914E+01 0.78599826615E+01 0.78444063690E+01 0.78599826615E+01
 0.79049603914E+01 0.79739675655E+01 0.80579263129E+01 0.81445908245E+01 0.82201302920E+01
 0.82716403252E+01 0.82899223918E+01 0.82716403252E+01 0.82201302920E+01 0.81445908245E+01
 0.80579263129E+01 0.79739675655E+01 0.79049603914E+01 0.78599826615E+01 0.78427626149E+01
 0.78591272493E+01 0.79063506287E+01 0.79787499534E+01 0.80668469364E+01 0.81579820194E+01
 0.82379076133E+01 0.82932791191E+01 0.83144534716E+01 0.82977356300E+01 0.82463103718E+01
 0.81695103132E+01 0.80806428773E+01 0.79941079178E+01 0.79227473096E+01 0.78761396446E+01
 0.78599826615E+01 0.78761396446E+01 0.79227473096E+01 0.79941079178E+01 0.80806428773E+01
 0.81695103132E+01 0.82463103718E+01 0.82977356300E+01 0.83144534716E+01 0.82932791191E+01
 0.82379076133E+01 0.81579820194E+01 0.80668469364E+01 0.79787499534E+01 0.79063506287E+01
 0.78591272493E+01 0.78602331817E+01 0.78784720550E+01 0.79308833686E+01 0.80107059008E+01
 0.81072414580E+01 0.82068772217E+01 0.82947467797E+01 0.83570103852E+01 0.83834357371E+01
 0.83696470682E+01 0.83182935682E+01 0.82386228285E+01 0.81444915973E+01 0.80514483679E+01
 0.79738418414E+01 0.79227473096E+01 0.79049603914E+01 0.79227473096E+01 0.79738418414E+01
 0.80514483679E+01 0.81444915973E+01 0.82386228285E+01 0.83182935682E+01 0.83696470682E+01
 0.83834357371E+01 0.83570103852E+01 0.82947467797E+01 0.82068772217E+01 0.81072414580E+01
 0.80107059008E+01 0.79308833686E+01 0.78784720550E+01 0.79541308083E+01 0.79744326070E+01
 0.80319690038E+01 0.81174581502E+01 0.82177471476E+01 0.83181455535E+01 0.84043783559E+01
 0.84641204181E+01 0.84884291038E+01 0.84731866600E+01 0.84202029742E+01 0.83374062637E+01
 0.82377732589E+01 0.81371398288E+01 0.80514483679E+01 0.79941079178E+01 0.79739675655E+01
 0.79941079178E+01 0.80514483679E+01 0.81371398288E+01 0.82377732589E+01 0.83374062637E+01
 0.84202029742E+01 0.84731866600E+01 0.84884291038E+01 0.84641204181E+01 0.84043783559E+01
 0.83181455535E+01 0.82177471476E+01 0.81174581502E+01 0.80319690038E+01 0.79744326070E+01
 0.81917603051E+01 0.82144007961E+01 0.82765079833E+01 0.83629678158E+01 0.84552036457E+01
 0.85368591769E+01 0.85966780966E+01 0.86283429909E+01 0.86288904489E+01 0.85975396920E+01
 0.85357743418E+01 0.84483840487E+01 0.83445261621E+01 0.82377732589E+01 0.81444915973E+01
 0.80806428773E+01 0.80579263129E+01 0.80806428773E+01 0.81444915973E+01 0.82377732589E+01
 0.83445261621E+01 0.84483840487E+01 0.85357743418E+01 0.85975396920E+01 0.86288904489E+01
 0.86283429909E+01 0.85966780966E+01 0.85368591769E+01 0.84552036457E+01 0.83629678158E+01
 0.82765079833E+01 0.82144007961E+01 0.86319766855E+01 0.86581833487E+01 0.87260387036E+01
 0.88093479653E+01 0.88799755048E+01 0.89185721618E+01 0.89171057600E+01 0.88807434517E+01
 0.88203835180E+01 0.87445400347E+01 0.86567182119E+01 0.85573533928E+01 0.84483840487E+01
 0.83374062637E+01 0.82386228285E+01 0.81695103132E+01 0.81445908245E+01 0.81695103132E+01
 0.82386228285E+01 0.83374062637E+01 0.84483840487E+01 0.85573533928E+01 0.86567182119E+01
 0.87445400347E+01 0.88203835180E+01 0.88807434517E+01 0.89171057600E+01 0.89185721618E+01
 0.88799755048E+01 0.88093479653E+01 0.87260387036E+01 0.86581833487E+01 0.93169563749E+01
 0.93535543579E+01 0.94413376760E+01 0.95280691263E+01 0.95625185164E+01 0.95209404454E+01
 0.94119933788E+01 0.92604088250E+01 0.90909685995E+01 0.89289592007E+01 0.87852343593E+01
 0.86567182119E+01 0.85357743418E+01 0.84202029742E+01 0.83182935682E+01 0.82463103718E+01
 0.82201302920E+01 0.82463103718E+01 0.83182935682E+01 0.84202029742E+01 0.85357743418E+01
 0.86567182119E+01 0.87852343593E+01 0.89289592007E+01 0.90909685995E+01 0.92604088250E+01
 0.94119933788E+01 0.95209404454E+01 0.95625185164E+01 0.95280691263E+01 0.94413376760E+01
 0.93535543579E+01 0.10185760248E+02 0.10249422158E+02 0.10398293401E+02 0.10531716177E+02
 0.10550091963E+02 0.10408966642E+02 0.10134706829E+02 0.97972998662E+01 0.94636890809E+01
 0.91679339736E+01 0.89289592007E+01 0.87445400347E+01 0.85975396920E+01 0.84731866600E+01
 0.83696470682E+01 0.82977356300E+01 0.82716403252E+01 0.82977356300E+01 0.83696470682E+01
 0.84731866600E+01 0.85975396920E+01 0.87445400347E+01 0.89289592007E+01 0.91679339736E+01
 0.94636890809E+01 0.97972998662E+01 0.10134706829E+02 0.10408966642E+02 0.10550091963E+02
 0.10531716177E+02 0.10398293401E+02 0.10249422158E+02 0.11051251546E+02 0.11165621248E+02
 0.11438322336E+02 0.11698057682E+02 0.11767800906E+02 0.11557323071E+02 0.11099667053E+02
 0.10516684360E+02 0.99437537946E+01 0.94636890809E+01 0.90909685995E+01 0.88203835180E+01
 0.86288904489E+01 0.84884291038E+01 0.83834357371E+01 0.83144534716E+01 0.82899223918E+01
 0.83144534716E+01 0.83834357371E+01 0.84884291038E+01 0.86288904489E+01 0.88203835180E+01
 0.90909685995E+01 0.94636890809E+01 0.99437537946E+01 0.10516684360E+02 0.11099667053E+02
 0.11557323071E+02 0.11767800906E+02 0.11698057682E+02 0.11438322336E+02 0.11165621248E+02
 0.11684695926E+02 0.11867547504E+02 0.12316257990E+02 0.12782510270E+02 0.12995669842E+02
 0.12795367297E+02 0.12198503686E+02 0.11368734684E+02 0.10516684360E+02 0.97972998662E+01
 0.92604088250E+01 0.88807434517E+01 0.86283429909E+01 0.84641204181E+01 0.83570103852E+01
 0.82932791191E+01 0.82716403252E+01 0.82932791191E+01 0.83570103852E+01 0.84641204181E+01
 0.86283429909E+01 0.88807434517E+01 0.92604088250E+01 0.97972998662E+01 0.10516684360E+02
 0.11368734684E+02 0.12198503686E+02 0.12795367297E+02 0.12995669842E+02 0.12782510270E+02
 0.12316257990E+02 0.11867547504E+02 0.11986388178E+02 0.12229490927E+02 0.12842320375E+02
 0.13527040949E+02 0.13938172385E+02 0.13838760364E+02 0.13201063143E+02 0.12198503686E+02
 0.11099667053E+02 0.10134706829E+02 0.94119933788E+01 0.89171057600E+01 0.85966780966E+01
 0.84043783559E+01 0.82947467797E+01 0.82379076133E+01 0.82201302920E+01 0.82379076133E+01
 0.82947467797E+01 0.84043783559E+01 0.85966780966E+01 0.89171057600E+01 0.94119933788E+01
 0.10134706829E+02 0.11099667053E+02 0.12198503686E+02 0.13201063143E+02 0.13838760364E+02
 0.13938172385E+02 0.13527040949E+02 0.12842320375E+02 0.12229490927E+02 0.12109995121E+02
 0.12364426742E+02 0.13023493352E+02 0.13808353795E+02 0.14364936080E+02 0.14406475747E+02
 0.13838760364E+02 0.12795367297E+02 0.11557323071E+02 0.10408966642E+02 0.95209404454E+01
 0.89185721618E+01 0.85368591769E+01 0.83181455535E+01 0.82068772217E+01 0.81579820194E+01
 0.81445908245E+01 0.81579820194E+01 0.82068772217E+01 0.83181455535E+01 0.85368591769E+01
 0.89185721618E+01 0.95209404454E+01 0.10408966642E+02 0.11557323071E+02 0.12795367297E+02
 0.13838760364E+02 0.14406475747E+02 0.14364936080E+02 0.13808353795E+02 0.13023493352E+02
 0.12364426742E+02 0.12393068440E+02 0.12575773152E+02 0.13069987910E+02 0.13709898978E+02
 0.14233984684E+02 0.14364936080E+02 0.13938172385E+02 0.12995669842E+02 0.11767800906E+02
 0.10550091963E+02 0.95625185164E+01 0.88799755048E+01 0.84552036457E+01 0.82177471476E+01
 0.81072414580E+01 0.80668469364E+01 0.80579263129E+01 0.80668469364E+01 0.81072414580E+01
 0.82177471476E+01 0.84552036457E+01 0.88799755048E+01 0.95625185164E+01 0.10550091963E+02
 0.11767800906E+02 0.12995669842E+02 0.13938172385E+02 0.14364936080E+02 0.14233984684E+02
 0.13709898978E+02 0.13069987910E+02 0.12575773152E+02 0.13096607927E+02 0.13123086770E+02
 0.13231289980E+02 0.13451099554E+02 0.13709898978E+02 0.13808353795E+02 0.13527040949E+02
 0.12782510270E+02 0.11698057682E+02 0.10531716177E+02 0.95280691263E+01 0.88093479653E+01
 0.83629678158E+01 0.81174581502E+01 0.80107059008E+01 0.79787499534E+01 0.79739675655E+01
 0.79787499534E+01 0.80107059008E+01 0.81174581502E+01 0.83629678158E+01 0.88093479653E+01
 0.95280691263E+01 0.10531716177E+02 0.11698057682E+02 0.12782510270E+02 0.13527040949E+02
 0.13808353795E+02 0.13709898978E+02 0.13451099554E+02 0.13231289980E+02 0.13123086770E+02
 0.14149130444E+02 0.13978103755E+02 0.13586979755E+02 0.13231289980E+02 0.13069987910E+02
 0.13023493352E+02 0.12842320375E+02 0.12316257990E+02 0.11438322336E+02 0.10398293401E+02
 0.94413376760E+01 0.87260387036E+01 0.82765079833E+01 0.80319690038E+01 0.79308833686E+01
 0.79063506287E+01 0.79049603914E+01 0.79063506287E+01 0.79308833686E+01 0.80319690038E+01
 0.82765079833E+01 0.87260387036E+01 0.94413376760E+01 0.10398293401E+02 0.11438322336E+02
 0.12316257990E+02 0.12842320375E+02 0.13023493352E+02 0.13069987910E+02 0.13231289980E+02
 0.13586979755E+02 0.13978103755E+02 0.15127797427E+02 0.14791517592E+02 0.13978103755E+02
 0.13123086770E+02 0.12575773152E+02 0.12364426742E+02 0.12229490927E+02 0.11867547504E+02
 0.11165621248E+02 0.10249422158E+02 0.93535543579E+01 0.86581833487E+01 0.82144007961E+01
 0.79744326070E+01 0.78784720550E+01 0.78591272493E+01 0.78599826615E+01 0.78591272493E+01
 0.78784720550E+01 0.79744326070E+01 0.82144007961E+01 0.86581833487E+01 0.93535543579E+01
 0.10249422158E+02 0.11165621248E+02 0.11867547504E+02 0.12229490927E+02 0.12364426742E+02
 0.12575773152E+02 0.13123086770E+02 0.13978103755E+02 0.14791517592E+02 0.15127797427E+02
 0.14791517592E+02 0.13978103755E+02 0.13123086770E+02 0.12575773152E+02 0.12364426742E+02
 0.12229490927E+02 0.11867547504E+02 0.11165621248E+02 0.10249422158E+02 0.93535543579E+01
 0.86581833487E+01 0.82144007961E+01 0.79744326070E+01 0.78784720550E+01 0.78591272493E+01
 0.78599826615E+01 0.78591272493E+01 0.78784720550E+01 0.79744326070E+01 0.82144007961E+01
 0.86581833487E+01 0.93535543579E+01 0.10249422158E+02 0.11165621248E+02 0.11867547504E+02
 0.12229490927E+02 0.12364426742E+02 0.12575773152E+02 0.13123086770E+02 0.13978103755E+02
 0.14791517592E+02 0.14791517592E+02 0.14513978876E+02 0.13850771401E+02 0.13173575081E+02
 0.12763896700E+02 0.12611187663E+02 0.12458941780E+02 0.12036702697E+02 0.11269524713E+02
 0.10306560221E+02 0.93867731780E+01 0.86829533584E+01 0.82365833965E+01 0.79948297305E+01
 0.78971010497E+01 0.78760278812E+01 0.78761396446E+01 0.78760278812E+01 0.78971010497E+01
 0.79948297305E+01 0.82365833965E+01 0.86829533584E+01 0.93867731780E+01 0.10306560221E+02
 0.11269524713E+02 0.12036702697E+02 0.12458941780E+02 0.12611187663E+02 0.12763896700E+02
 0.13173575081E+02 0.13850771401E+02 0.14513978876E+02 0.13978103755E+02 0.13850771401E+02
 0.13569784617E+02 0.13339867411E+02 0.13267657910E+02 0.13246413155E+02 0.13033613087E+02
 0.12448466660E+02 0.11514685258E+02 0.10438678650E+02 0.94661306721E+01 0.87473728511E+01
 0.82976851759E+01 0.80527797373E+01 0.79506640338E+01 0.79247685767E+01 0.79227473096E+01
 0.79247685767E+01 0.79506640338E+01 0.80527797373E+01 0.82976851759E+01 0.87473728511E+01
 0.94661306721E+01 0.10438678650E+02 0.11514685258E+02 0.12448466660E+02 0.13033613087E+02
 0.13246413155E+02 0.13267657910E+02 0.13339867411E+02 0.13569784617E+02 0.13850771401E+02
 0.13123086770E+02 0.13173575081E+02 0.13339867411E+02 0.13618883177E+02 0.13906414066E+02
 0.13990848029E+02 0.13663792265E+02 0.12865441712E+02 0.11739582269E+02 0.10552063142E+02
 0.95434929495E+01 0.88272725563E+01 0.83834910035E+01 0.81392539626E+01 0.80322992756E+01
 0.79993924677E+01 0.79941079178E+01 0.79993924677E+01 0.80322992756E+01 0.81392539626E+01
 0.83834910035E+01 0.88272725563E+01 0.95434929495E+01 0.10552063142E+02 0.11739582269E+02
 0.12865441712E+02 0.13663792265E+02 0.13990848029E+02 0.13906414066E+02 0.13618883177E+02
 0.13339867411E+02 0.13173575081E+02 0.12575773152E+02 0.12763896700E+02 0.13267657910E+02
 0.13906414066E+02 0.14407376572E+02 0.14494417721E+02 0.14016083146E+02 0.13030680655E+02
 0.11778454398E+02 0.10554597489E+02 0.95717462295E+01 0.88963501321E+01 0.84762026357E+01
 0.82411928196E+01 0.81310370008E+01 0.80899728311E+01 0.80806428773E+01 0.80899728311E+01
 0.81310370008E+01 0.82411928196E+01 0.84762026357E+01 0.88963501321E+01 0.95717462295E+01
 0.10554597489E+02 0.11778454398E+02 0.13030680655E+02 0.14016083146E+02 0.14494417721E+02
 0.14407376572E+02 0.13906414066E+02 0.13267657910E+02 0.12763896700E+02 0.12364426742E+02
 0.12611187663E+02 0.13246413155E+02 0.13990848029E+02 0.14494417721E+02 0.14480218326E+02
 0.13866382933E+02 0.12795286302E+02 0.11549109882E+02 0.10406363712E+02 0.95291254869E+01
 0.89357692148E+01 0.85595779934E+01 0.83436229868E+01 0.82327835913E+01 0.81832795446E+01
 0.81695103132E+01 0.81832795446E+01 0.82327835913E+01 0.83436229868E+01 0.85595779934E+01
 0.89357692148E+01 0.95291254869E+01 0.10406363712E+02 0.11549109882E+02 0.12795286302E+02
 0.13866382933E+02 0.14480218326E+02 0.14494417721E+02 0.13990848029E+02 0.13246413155E+02
 0.12611187663E+02 0.12229490927E+02 0.12458941780E+02 0.13033613087E+02 0.13663792265E+02
 0.14016083146E+02 0.13866382933E+02 0.13196239081E+02 0.12181594999E+02 0.11086747063E+02
 0.10133820485E+02 0.94234610014E+01 0.89369333964E+01 0.86217240101E+01 0.84316297021E+01
 0.83220644724E+01 0.82644854252E+01 0.82463103718E+01 0.82644854252E+01 0.83220644724E+01
 0.84316297021E+01 0.86217240101E+01 0.89369333964E+01 0.94234610014E+01 0.10133820485E+02
 0.11086747063E+02 0.12181594999E+02 0.13196239081E+02 0.13866382933E+02 0.14016083146E+02
 0.13663792265E+02 0.13033613087E+02 0.12458941780E+02 0.11867547504E+02 0.12036702697E+02
 0.12448466660E+02 0.12865441712E+02 0.13030680655E+02 0.12795286302E+02 0.12181594999E+02
 0.11351723217E+02 0.10509909197E+02 0.98035353454E+01 0.92768066450E+01 0.89039187274E+01
 0.86552799698E+01 0.84921398099E+01 0.83844910717E+01 0.83198080998E+01 0.82977356300E+01
 0.83198080998E+01 0.83844910717E+01 0.84921398099E+01 0.86552799698E+01 0.89039187274E+01
 0.92768066450E+01 0.98035353454E+01 0.10509909197E+02 0.11351723217E+02 0.12181594999E+02
 0.12795286302E+02 0.13030680655E+02 0.12865441712E+02 0.12448466660E+02 0.12036702697E+02
 0.11165621248E+02 0.11269524713E+02 0.11514685258E+02 0.11739582269E+02 0.11778454398E+02
 0.11549109882E+02 0.11086747063E+02 0.10509909197E+02 0.99479065346E+01 0.94778659028E+01
 0.91122100324E+01 0.88460886994E+01 0.86563535834E+01 0.85156803020E+01 0.84095407929E+01
 0.83394350714E+01 0.83144534716E+01 0.83394350714E+01 0.84095407929E+01 0.85156803020E+01
 0.86563535834E+01 0.88460886994E+01 0.91122100324E+01 0.94778659028E+01 0.99479065346E+01
 0.10509909197E+02 0.11086747063E+02 0.11549109882E+02 0.11778454398E+02 0.11739582269E+02
 0.11514685258E+02 0.11269524713E+02 0.10249422158E+02 0.10306560221E+02 0.10438678650E+02
 0.10552063142E+02 0.10554597489E+02 0.10406363712E+02 0.10133820485E+02 0.98035353454E+01
 0.94778659028E+01 0.91883816577E+01 0.89536493559E+01 0.87709914040E+01 0.86237512652E+01
 0.84980440519E+01 0.83929111129E+01 0.83198080998E+01 0.82932791191E+01 0.83198080998E+01
 0.83929111129E+01 0.84980440519E+01 0.86237512652E+01 0.87709914040E+01 0.89536493559E+01
 0.91883816577E+01 0.94778659028E+01 0.98035353454E+01 0.10133820485E+02 0.10406363712E+02
 0.10554597489E+02 0.10552063142E+02 0.10438678650E+02 0.10306560221E+02 0.93535543579E+01
 0.93867731780E+01 0.94661306721E+01 0.95434929495E+01 0.95717462295E+01 0.95291254869E+01
 0.94234610014E+01 0.92768066450E+01 0.91122100324E+01 0.89536493559E+01 0.88112019526E+01
 0.86819981816E+01 0.85591764187E+01 0.84414119219E+01 0.83376478282E+01 0.82644854252E+01
 0.82379076133E+01 0.82644854252E+01 0.83376478282E+01 0.84414119219E+01 0.85591764187E+01
 0.86819981816E+01 0.88112019526E+01 0.89536493559E+01 0.91122100324E+01 0.92768066450E+01
 0.94234610014E+01 0.95291254869E+01 0.95717462295E+01 0.95434929495E+01 0.94661306721E+01
 0.93867731780E+01 0.86581833487E+01 0.86829533584E+01 0.87473728511E+01 0.88272725563E+01
 0.88963501321E+01 0.89357692148E+01 0.89369333964E+01 0.89039187274E+01 0.88460886994E+01
 0.87709914040E+01 0.86819981816E+01 0.85801007458E+01 0.84681027158E+01 0.83543744711E+01
 0.82535677822E+01 0.81832795446E+01 0.81579820194E+01 0.81832795446E+01 0.82535677822E+01
 0.83543744711E+01 0.84681027158E+01 0.85801007458E+01 0.86819981816E+01 0.87709914040E+01
 0.88460886994E+01 0.89039187274E+01 0.89369333964E+01 0.89357692148E+01 0.88963501321E+01
 0.88272725563E+01 0.87473728511E+01 0.86829533584E+01 0.82144007961E+01 0.82365833965E+01
 0.82976851759E+01 0.83834910035E+01 0.84762026357E+01 0.85595779934E+01 0.86217240101E+01
 0.86552799698E+01 0.86563535834E+01 0.86237512652E+01 0.85591764187E+01 0.84681027158E+01
 0.83605077801E+01 0.82506106300E+01 0.81550989390E+01 0.80899728311E+01 0.80668469364E+01
 0.80899728311E+01 0.81550989390E+01 0.82506106300E+01 0.83605077801E+01 0.84681027158E+01
 0.85591764187E+01 0.86237512652E+01 0.86563535834E+01 0.86552799698E+01 0.86217240101E+01
 0.85595779934E+01 0.84762026357E+01 0.83834910035E+01 0.82976851759E+01 0.82365833965E+01
 0.79744326070E+01 0.79948297305E+01 0.80527797373E+01 0.81392539626E+01 0.82411928196E+01
 0.83436229868E+01 0.84316297021E+01 0.84921398099E+01 0.85156803020E+01 0.84980440519E+01
 0.84414119219E+01 0.83543744711E+01 0.82506106300E+01 0.81464926010E+01 0.80582536884E+01
 0.79993924677E+01 0.79787499534E+01 0.79993924677E+01 0.80582536884E+01 0.81464926010E+01
 0.82506106300E+01 0.83543744711E+01 0.84414119219E+01 0.84980440519E+01 0.85156803020E+01
 0.84921398099E+01 0.84316297021E+01 0.83436229868E+01 0.82411928196E+01 0.81392539626E+01
 0.80527797373E+01 0.79948297305E+01 0.78784720550E+01 0.78971010497E+01 0.79506640338E+01
 0.80322992756E+01 0.81310370008E+01 0.82327835913E+01 0.83220644724E+01 0.83844910717E+01
 0.84095407929E+01 0.83929111129E+01 0.83376478282E+01 0.82535677822E+01 0.81550989390E+01
 0.80582536884E+01 0.79777117397E+01 0.79247685767E+01 0.79063506287E+01 0.79247685767E+01
 0.79777117397E+01 0.80582536884E+01 0.81550989390E+01 0.82535677822E+01 0.83376478282E+01
 0.83929111129E+01 0.84095407929E+01 0.83844910717E+01 0.83220644724E+01 0.82327835913E+01
 0.81310370008E+01 0.80322992756E+01 0.79506640338E+01 0.78971010497E+01 0.78591272493E+01
 0.78760278812E+01 0.79247685767E+01 0.79993924677E+01 0.80899728311E+01 0.81832795446E+01
 0.82644854252E+01 0.83198080998E+01 0.83394350714E+01 0.83198080998E+01 0.82644854252E+01
 0.81832795446E+01 0.80899728311E+01 0.79993924677E+01 0.79247685767E+01 0.78760278812E+01
 0.78591272493E+01 0.78760278812E+01 0.79247685767E+01 0.79993924677E+01 0.80899728311E+01
 0.81832795446E+01 0.82644854252E+01 0.83198080998E+01 0.83394350714E+01 0.83198080998E+01
 0.82644854252E+01 0.81832795446E+01 0.80899728311E+01 0.79993924677E+01 0.79247685767E+01
 0.78760278812E+01 0.78599826615E+01 0.78761396446E+01 0.79227473096E+01 0.79941079178E+01
 0.80806428773E+01 0.81695103132E+01 0.82463103718E+01 0.82977356300E+01 0.83144534716E+01
 0.82932791191E+01 0.82379076133E+01 0.81579820194E+01 0.80668469364E+01 0.79787499534E+01
 0.79063506287E+01 0.78591272493E+01 0.78427626149E+01 0.78591272493E+01 0.79063506287E+01
 0.79787499534E+01 0.80668469364E+01 0.81579820194E+01 0.82379076133E+01 0.82932791191E+01
 0.83144534716E+01 0.82977356300E+01 0.82463103718E+01 0.81695103132E+01 0.80806428773E+01
 0.79941079178E+01 0.79227473096E+01 0.78761396446E+01 0.78591272493E+01 0.78760278812E+01
 0.79247685767E+01 0.79993924677E+01 0.80899728311E+01 0.81832795446E+01 0.82644854252E+01
 0.83198080998E+01 0.83394350714E+01 0.83198080998E+01 0.82644854252E+01 0.81832795446E+01
 0.80899728311E+01 0.79993924677E+01 0.79247685767E+01 0.78760278812E+01 0.78591272493E+01
 0.78760278812E+01 0.79247685767E+01 0.79993924677E+01 0.80899728311E+01 0.81832795446E+01
 0.82644854252E+01 0.83198080998E+01 0.83394350714E+01 0.83198080998E+01 0.82644854252E+01
 0.81832795446E+01 0.80899728311E+01 0.79993924677E+01 0.79247685767E+01 0.78760278812E+01
 0.78784720550E+01 0.78971010497E+01 0.79506640338E+01 0.80322992756E+01 0.81310370008E+01
 0.82327835913E+01 0.83220644724E+01 0.83844910717E+01 0.84095407929E+01 0.83929111129E+01
 0.83376478282E+01 0.82535677822E+01 0.81550989390E+01 0.80582536884E+01 0.79777117397E+01
 0.79247685767E+01 0.79063506287E+01 0.79247685767E+01 0.79777117397E+01 0.80582536884E+01
 0.81550989390E+01 0.82535677822E+01 0.83376478282E+01 0.83929111129E+01 0.84095407929E+01
 0.83844910717E+01 0.83220644724E+01 0.82327835913E+01 0.81310370008E+01 0.80322992756E+01