   2   2   0   0
  0.1813235E+02  0.3310000E-09  0.3310000E-09  0.3310000E-09  0.5000000E-15
  1.000000000000000E-004
  CAR 
 unknown system                          
     12.65688823     -3.92552784  301      5.66342115      1.00000000
     -3.926  0.0000E+00  0.0000E+00
     -3.870  0.0000E+00  0.0000E+00
     -3.815  0.0000E+00  0.0000E+00
     -3.760  0.0000E+00  0.0000E+00
     -3.704  0.0000E+00  0.0000E+00
     -3.649  0.0000E+00  0.0000E+00
     -3.594  0.0000E+00  0.0000E+00
     -3.539 -0.7216E-28 -0.3989E-29
     -3.483 -0.5501E-26 -0.3081E-27
     -3.428 -0.3634E-24 -0.2040E-25
     -3.373 -0.2057E-22 -0.1158E-23
     -3.318 -0.9978E-21 -0.5631E-22
     -3.262 -0.4145E-19 -0.2347E-20
     -3.207 -0.1474E-17 -0.8384E-19
     -3.152 -0.4490E-16 -0.2566E-17
     -3.096 -0.1139E-14 -0.6552E-16
     -3.041 -0.2525E-13 -0.1461E-14
     -2.986 -0.4803E-12 -0.2801E-13
     -2.931 -0.7797E-11 -0.4590E-12
     -2.875 -0.1081E-09 -0.6432E-11
     -2.820 -0.1277E-08 -0.7703E-10
     -2.765 -0.1286E-07 -0.7879E-09
     -2.709 -0.1102E-06 -0.6877E-08
     -2.654 -0.8012E-06 -0.5116E-07
     -2.599 -0.4935E-05 -0.3239E-06
     -2.544 -0.2566E-04 -0.1742E-05
     -2.488 -0.1121E-03 -0.7937E-05
     -2.433 -0.4081E-03 -0.3050E-04
     -2.378 -0.1225E-02 -0.9819E-04
     -2.323 -0.2964E-02 -0.2620E-03
     -2.267 -0.5530E-02 -0.5677E-03
     -2.212 -0.6989E-02 -0.9540E-03
     -2.157 -0.2336E-02 -0.1083E-02
     -2.101  0.1523E-01 -0.2412E-03
     -2.046  0.4875E-01  0.2453E-02
     -1.991  0.9075E-01  0.7470E-02
     -1.936  0.1234E+00  0.1429E-01
     -1.880  0.1291E+00  0.2142E-01
     -1.825  0.1043E+00  0.2719E-01
     -1.770  0.6209E-01  0.3062E-01
     -1.715  0.2066E-01  0.3176E-01
     -1.659 -0.9113E-02  0.3126E-01
     -1.604 -0.2538E-01  0.2986E-01
     -1.549 -0.2565E-01  0.2844E-01
     -1.493  0.1961E-02  0.2855E-01
     -1.438  0.7345E-01  0.3261E-01
     -1.383  0.1883E+00  0.4302E-01
     -1.328  0.3120E+00  0.6026E-01
     -1.272  0.3866E+00  0.8163E-01
     -1.217  0.3704E+00  0.1021E+00
     -1.162  0.2716E+00  0.1171E+00
     -1.107  0.1406E+00  0.1249E+00
     -1.051  0.3150E-01  0.1266E+00
     -0.996 -0.2736E-01  0.1251E+00
     -0.941 -0.3038E-01  0.1234E+00
     -0.885  0.2251E-01  0.1247E+00
     -0.830  0.1270E+00  0.1317E+00
     -0.775  0.2579E+00  0.1460E+00
     -0.720  0.3629E+00  0.1660E+00
     -0.664  0.3888E+00  0.1875E+00
     -0.609  0.3210E+00  0.2052E+00
     -0.554  0.1956E+00  0.2161E+00
     -0.498  0.7016E-01  0.2199E+00
     -0.443 -0.1439E-01  0.2191E+00
     -0.388 -0.4277E-01  0.2168E+00
     -0.333 -0.9177E-02  0.2163E+00
     -0.277  0.9188E-01  0.2214E+00
     -0.222  0.2487E+00  0.2351E+00
     -0.167  0.4103E+00  0.2578E+00
     -0.112  0.4989E+00  0.2854E+00
     -0.056  0.4618E+00  0.3109E+00
     -0.001  0.3205E+00  0.3286E+00
      0.054  0.1686E+00  0.3379E+00
      0.110  0.1171E+00  0.3444E+00
      0.165  0.2240E+00  0.3568E+00
      0.220  0.4519E+00  0.3817E+00
      0.275  0.6788E+00  0.4193E+00
      0.331  0.7701E+00  0.4618E+00
      0.386  0.6689E+00  0.4988E+00
      0.441  0.4320E+00  0.5227E+00
      0.496  0.1787E+00  0.5326E+00
      0.552  0.9459E-02  0.5331E+00
      0.607 -0.3345E-01  0.5312E+00
      0.662  0.4759E-01  0.5339E+00
      0.718  0.2254E+00  0.5463E+00
      0.773  0.4468E+00  0.5710E+00
      0.828  0.6317E+00  0.6059E+00
      0.883  0.7004E+00  0.6447E+00
      0.939  0.6186E+00  0.6788E+00
      0.994  0.4211E+00  0.7021E+00
      1.049  0.1900E+00  0.7126E+00
      1.104  0.1188E-01  0.7133E+00
      1.160 -0.4849E-01  0.7106E+00
      1.215  0.5788E-01  0.7138E+00
      1.270  0.3755E+00  0.7346E+00
      1.326  0.9197E+00  0.7854E+00
      1.381  0.1613E+01  0.8746E+00
      1.436  0.2251E+01  0.9990E+00
      1.491  0.2571E+01  0.1141E+01
      1.547  0.2420E+01  0.1275E+01
      1.602  0.1869E+01  0.1378E+01
      1.657  0.1175E+01  0.1443E+01
      1.712  0.6083E+00  0.1477E+01
      1.768  0.3099E+00  0.1494E+01
      1.823  0.2850E+00  0.1510E+01
      1.878  0.4878E+00  0.1537E+01
      1.934  0.8778E+00  0.1585E+01
      1.989  0.1388E+01  0.1662E+01
      2.044  0.1867E+01  0.1765E+01
      2.099  0.2107E+01  0.1881E+01
      2.155  0.1974E+01  0.1991E+01
      2.210  0.1526E+01  0.2075E+01
      2.265  0.1012E+01  0.2131E+01
      2.321  0.7499E+00  0.2172E+01
      2.376  0.9559E+00  0.2225E+01
      2.431  0.1604E+01  0.2314E+01
      2.486  0.2402E+01  0.2446E+01
      2.542  0.2943E+01  0.2609E+01
      2.597  0.2954E+01  0.2772E+01
      2.652  0.2474E+01  0.2909E+01
      2.707  0.1799E+01  0.3009E+01
      2.763  0.1263E+01  0.3078E+01
      2.818  0.1066E+01  0.3137E+01
      2.873  0.1228E+01  0.3205E+01
      2.929  0.1633E+01  0.3295E+01
      2.984  0.2096E+01  0.3411E+01
      3.039  0.2439E+01  0.3546E+01
      3.094  0.2559E+01  0.3688E+01
      3.150  0.2443E+01  0.3823E+01
      3.205  0.2142E+01  0.3941E+01
      3.260  0.1725E+01  0.4036E+01
      3.315  0.1267E+01  0.4106E+01
      3.371  0.8500E+00  0.4153E+01
      3.426  0.5576E+00  0.4184E+01
      3.481  0.4487E+00  0.4209E+01
      3.537  0.5330E+00  0.4238E+01
      3.592  0.7631E+00  0.4281E+01
      3.647  0.1039E+01  0.4338E+01
      3.702  0.1227E+01  0.4406E+01
      3.758  0.1208E+01  0.4473E+01
      3.813  0.9574E+00  0.4526E+01
      3.868  0.5879E+00  0.4558E+01
      3.923  0.3173E+00  0.4576E+01
      3.979  0.3552E+00  0.4595E+01
      4.034  0.7893E+00  0.4639E+01
      4.089  0.1545E+01  0.4724E+01
      4.145  0.2446E+01  0.4859E+01
      4.200  0.3312E+01  0.5043E+01
      4.255  0.4018E+01  0.5265E+01
      4.310  0.4468E+01  0.5512E+01
      4.366  0.4592E+01  0.5765E+01
      4.421  0.4404E+01  0.6009E+01
      4.476  0.4034E+01  0.6232E+01
      4.532  0.3663E+01  0.6434E+01
      4.587  0.3397E+01  0.6622E+01
      4.642  0.3225E+01  0.6800E+01
      4.697  0.3087E+01  0.6971E+01
      4.753  0.2943E+01  0.7134E+01
      4.808  0.2775E+01  0.7287E+01
      4.863  0.2577E+01  0.7429E+01
      4.918  0.2368E+01  0.7560E+01
      4.974  0.2201E+01  0.7682E+01
      5.029  0.2166E+01  0.7802E+01
      5.084  0.2340E+01  0.7931E+01
      5.140  0.2713E+01  0.8081E+01
      5.195  0.3152E+01  0.8255E+01
      5.250  0.3500E+01  0.8449E+01
      5.305  0.3724E+01  0.8655E+01
      5.361  0.3932E+01  0.8872E+01
      5.416  0.4196E+01  0.9104E+01
      5.471  0.4379E+01  0.9346E+01
      5.526  0.4226E+01  0.9580E+01
      5.582  0.3645E+01  0.9781E+01
      5.637  0.2849E+01  0.9938E+01
      5.692  0.2204E+01  0.1006E+02
      5.748  0.1924E+01  0.1017E+02
      5.803  0.1945E+01  0.1027E+02
      5.858  0.2053E+01  0.1039E+02
      5.913  0.2090E+01  0.1050E+02
      5.969  0.2038E+01  0.1062E+02
      6.024  0.1947E+01  0.1072E+02
      6.079  0.1857E+01  0.1083E+02
      6.134  0.1781E+01  0.1092E+02
      6.190  0.1729E+01  0.1102E+02
      6.245  0.1701E+01  0.1111E+02
      6.300  0.1642E+01  0.1120E+02
      6.356  0.1461E+01  0.1129E+02
      6.411  0.1120E+01  0.1135E+02
      6.466  0.6990E+00  0.1139E+02
      6.521  0.3719E+00  0.1141E+02
      6.577  0.2920E+00  0.1142E+02
      6.632  0.4808E+00  0.1145E+02
      6.687  0.8075E+00  0.1149E+02
      6.742  0.1070E+01  0.1155E+02
      6.798  0.1125E+01  0.1162E+02
      6.853  0.9695E+00  0.1167E+02
      6.908  0.7206E+00  0.1171E+02
      6.964  0.5125E+00  0.1174E+02
      7.019  0.4081E+00  0.1176E+02
      7.074  0.3953E+00  0.1178E+02
      7.129  0.4384E+00  0.1181E+02
      7.185  0.5143E+00  0.1183E+02
      7.240  0.6054E+00  0.1187E+02
      7.295  0.6926E+00  0.1191E+02
      7.351  0.7756E+00  0.1195E+02
      7.406  0.8792E+00  0.1200E+02
      7.461  0.1011E+01  0.1205E+02
      7.516  0.1114E+01  0.1211E+02
      7.572  0.1097E+01  0.1218E+02
      7.627  0.9313E+00  0.1223E+02
      7.682  0.7097E+00  0.1227E+02
      7.737  0.5916E+00  0.1230E+02
      7.793  0.6972E+00  0.1234E+02
      7.848  0.1045E+01  0.1240E+02
      7.903  0.1563E+01  0.1248E+02
      7.959  0.2108E+01  0.1260E+02
      8.014  0.2494E+01  0.1274E+02
      8.069  0.2533E+01  0.1288E+02
      8.124  0.2143E+01  0.1299E+02
      8.180  0.1435E+01  0.1307E+02
      8.235  0.6881E+00  0.1311E+02
      8.290  0.2178E+00  0.1312E+02
      8.345  0.2294E+00  0.1314E+02
      8.401  0.7348E+00  0.1318E+02
      8.456  0.1536E+01  0.1326E+02
      8.511  0.2286E+01  0.1339E+02
      8.567  0.2645E+01  0.1353E+02
      8.622  0.2466E+01  0.1367E+02
      8.677  0.1884E+01  0.1378E+02
      8.732  0.1208E+01  0.1384E+02
      8.788  0.7353E+00  0.1388E+02
      8.843  0.6217E+00  0.1392E+02
      8.898  0.8873E+00  0.1397E+02
      8.953  0.1490E+01  0.1405E+02
      9.009  0.2346E+01  0.1418E+02
      9.064  0.3275E+01  0.1436E+02
      9.119  0.3970E+01  0.1458E+02
      9.175  0.4125E+01  0.1481E+02
      9.230  0.3658E+01  0.1501E+02
      9.285  0.2817E+01  0.1516E+02
      9.340  0.2029E+01  0.1528E+02
      9.396  0.1607E+01  0.1537E+02
      9.451  0.1574E+01  0.1545E+02
      9.506  0.1730E+01  0.1555E+02
      9.562  0.1826E+01  0.1565E+02
      9.617  0.1711E+01  0.1574E+02
      9.672  0.1395E+01  0.1582E+02
      9.727  0.1025E+01  0.1588E+02
      9.783  0.8005E+00  0.1592E+02
      9.838  0.8396E+00  0.1597E+02
      9.893  0.1111E+01  0.1603E+02
      9.948  0.1485E+01  0.1611E+02
     10.004  0.1853E+01  0.1621E+02
     10.059  0.2188E+01  0.1633E+02
     10.114  0.2483E+01  0.1647E+02
     10.170  0.2675E+01  0.1662E+02
     10.225  0.2658E+01  0.1677E+02
     10.280  0.2408E+01  0.1690E+02
     10.335  0.2086E+01  0.1702E+02
     10.391  0.1975E+01  0.1712E+02
     10.446  0.2253E+01  0.1725E+02
     10.501  0.2793E+01  0.1740E+02
     10.556  0.3205E+01  0.1758E+02
     10.612  0.3122E+01  0.1775E+02
     10.667  0.2485E+01  0.1789E+02
     10.722  0.1557E+01  0.1798E+02
     10.778  0.7012E+00  0.1802E+02
     10.833  0.1443E+00  0.1802E+02
     10.888 -0.9828E-01  0.1802E+02
     10.943 -0.1383E+00  0.1801E+02
     10.999 -0.9835E-01  0.1800E+02
     11.054 -0.5143E-01  0.1800E+02
     11.109 -0.2151E-01  0.1800E+02
     11.164 -0.7435E-02  0.1800E+02
     11.220 -0.2155E-02  0.1800E+02
     11.275 -0.5281E-03  0.1800E+02
     11.330 -0.1099E-03  0.1800E+02
     11.386 -0.1949E-04  0.1800E+02
     11.441 -0.2948E-05  0.1800E+02
     11.496 -0.3810E-06  0.1800E+02
     11.551 -0.4208E-07  0.1800E+02
     11.607 -0.3976E-08  0.1800E+02
     11.662 -0.3215E-09  0.1800E+02
     11.717 -0.2226E-10  0.1800E+02
     11.772 -0.1318E-11  0.1800E+02
     11.828 -0.6716E-13  0.1800E+02
     11.883 -0.2887E-14  0.1800E+02
     11.938  0.0000E+00  0.1800E+02
     11.994  0.0000E+00  0.1800E+02
     12.049  0.0000E+00  0.1800E+02
     12.104  0.0000E+00  0.1800E+02
     12.159  0.0000E+00  0.1800E+02
     12.215  0.0000E+00  0.1800E+02
     12.270  0.0000E+00  0.1800E+02
     12.325  0.0000E+00  0.1800E+02
     12.381  0.0000E+00  0.1800E+02
     12.436  0.0000E+00  0.1800E+02
     12.491  0.0000E+00  0.1800E+02
     12.546  0.0000E+00  0.1800E+02
     12.602  0.0000E+00  0.1800E+02
     12.657  0.0000E+00  0.1800E+02
