    2    2    1    1
  0.1813235E+02  0.3310000E-09  0.3310000E-09  0.3310000E-09  0.5000000E-15
  1.000000000000000E-004
  CAR 
 unknown system                          
   10   20    9
 
  0.6250000E-01  0.6250000E-01  0.6250000E-01  0.1562500E-01
   1       -1.925528
   2        2.110065
   3        2.110065
   4        6.299706
   5        6.299706
   6        6.732019
   7        9.549222
   8        9.549222
   9       10.572518
 
  0.1875000E+00  0.6250000E-01  0.6250000E-01  0.4687500E-01
   1       -1.281226
   2        2.463039
   3        2.567684
   4        6.057160
   5        6.159826
   6        7.242176
   7        8.684524
   8        8.871806
   9        9.968322
 
  0.3125000E+00  0.6250000E-01  0.6250000E-01  0.4687500E-01
   1       -0.115022
   2        3.001723
   3        3.151478
   4        5.927749
   5        6.012621
   6        7.526381
   7        7.579342
   8        7.974279
   9        8.562386
 
  0.4375000E+00  0.6250000E-01  0.6250000E-01  0.4687500E-01
   1        1.317930
   2        2.574226
   3        4.126444
   4        5.230104
   5        6.279406
   6        6.823224
   7        7.040206
   8        7.509998
   9        8.925504
 
  0.1875000E+00  0.1875000E+00  0.6250000E-01  0.4687500E-01
   1       -0.704746
   2        2.730164
   3        3.051111
   4        5.560246
   5        5.818651
   6        7.333331
   7        8.099885
   8        9.038854
   9        9.096267
 
  0.3125000E+00  0.1875000E+00  0.6250000E-01  0.9375000E-01
   1        0.299797
   2        2.936939
   3        3.740466
   4        5.254482
   5        5.505434
   6        6.354576
   7        8.049165
   8        8.519211
   9        9.150188
 
  0.4375000E+00  0.1875000E+00  0.6250000E-01  0.9375000E-01
   1        1.465435
   2        2.483263
   3        4.382968
   4        4.976028
   5        5.467743
   6        5.849225
   7        7.909454
   8        8.074138
   9       10.224405
 
  0.3125000E+00  0.3125000E+00  0.6250000E-01  0.4687500E-01
   1        0.904894
   2        2.556902
   3        4.728726
   4        4.759513
   5        5.458681
   6        5.478424
   7        7.793258
   8        9.359269
   9       10.062011
 
  0.4375000E+00  0.3125000E+00  0.6250000E-01  0.9375000E-01
   1        1.473318
   2        2.015353
   3        4.574592
   4        4.822873
   5        5.584714
   6        5.745331
   7        8.486591
   8        9.180928
   9       10.531601
 
  0.4375000E+00  0.4375000E+00  0.6250000E-01  0.4687500E-01
   1        1.437535
   2        1.601680
   3        4.231634
   4        4.328158
   5        6.703160
   6        6.732736
   7        9.199305
   8        9.639945
   9       10.490113
 
  0.1875000E+00  0.1875000E+00  0.1875000E+00  0.1562500E-01
   1       -0.141949
   2        3.275552
   3        3.275552
   4        5.283083
   5        5.283083
   6        5.789884
   7        9.087413
   8        9.478595
   9        9.478596
 
  0.3125000E+00  0.1875000E+00  0.1875000E+00  0.4687500E-01
   1        0.804997
   2        3.544693
   3        3.670880
   4        4.908094
   5        5.020842
   6        5.172366
   7        9.016210
   8        9.224291
   9       10.177327
 
  0.4375000E+00  0.1875000E+00  0.1875000E+00  0.4687500E-01
   1        1.832432
   2        2.770222
   3        4.126595
   4        4.536188
   5        5.240926
   6        5.490815
   7        8.589163
   8        8.591432
   9       10.322870
 
  0.3125000E+00  0.3125000E+00  0.1875000E+00  0.4687500E-01
   1        1.533076
   2        3.129858
   3        4.531724
   4        4.570897
   5        4.703523
   6        4.851908
   7        9.067305
   8        9.597345
   9       10.128606
 
  0.4375000E+00  0.3125000E+00  0.1875000E+00  0.9375000E-01
   1        2.097090
   2        2.560113
   3        4.359720
   4        4.398049
   5        5.228943
   6        5.411594
   7        9.146847
   8        9.449747
   9       10.561721
 
  0.4375000E+00  0.4375000E+00  0.1875000E+00  0.4687500E-01
   1        2.121801
   2        2.239390
   3        4.137277
   4        4.200912
   5        6.029487
   6        6.154219
   7        9.618063
   8        9.869169
   9       10.555895
 
  0.3125000E+00  0.3125000E+00  0.3125000E+00  0.1562500E-01
   1        2.503740
   2        3.385235
   3        4.323262
   4        4.323262
   5        4.562095
   6        4.562095
   7       10.118127
   8       10.127375
   9       10.130982
 
  0.4375000E+00  0.3125000E+00  0.3125000E+00  0.4687500E-01
   1        2.980494
   2        3.089089
   3        4.261736
   4        4.373002
   5        4.665258
   6        5.091252
   7        9.909583
   8        9.992831
   9       10.494395
 
  0.4375000E+00  0.4375000E+00  0.3125000E+00  0.4687500E-01
   1        3.197723
   2        3.287594
   3        4.094143
   4        4.244780
   5        5.133954
   6        5.380227
   7       10.222140
   8       10.301140
   9       10.623755
 
  0.4375000E+00  0.4375000E+00  0.4375000E+00  0.1562500E-01
   1        3.812457
   2        4.255852
   3        4.255852
   4        4.541658
   5        4.694581
   6        4.694581
   7       10.646034
   8       10.646837
   9       10.656888
