       N       E                     dE             d eps       ncg     rms          rms(c)
DAV:   1     0.749650374065E+00    0.74965E+00   -0.33262E+03   360   0.666E+02
DAV:   2    -0.239197991484E+02   -0.24669E+02   -0.23409E+02   557   0.103E+02
DAV:   3    -0.247013900325E+02   -0.78159E+00   -0.76696E+00   486   0.181E+01
DAV:   4    -0.247150229934E+02   -0.13633E-01   -0.13610E-01   601   0.190E+00
DAV:   5    -0.247150331629E+02   -0.10170E-04   -0.10170E-04   503   0.552E-02    0.460E+00
DAV:   6    -0.240380966901E+02    0.67694E+00   -0.41596E-01   381   0.456E+00    0.250E+00
DAV:   7    -0.237279831960E+02    0.31011E+00   -0.65660E-01   393   0.552E+00    0.233E-01
DAV:   8    -0.237274013124E+02    0.58188E-03   -0.10194E-02   482   0.745E-01    0.133E-01
DAV:   9    -0.237266627451E+02    0.73857E-03   -0.21807E-03   499   0.326E-01    0.526E-03
DAV:  10    -0.237266557038E+02    0.70413E-05   -0.79442E-06   327   0.202E-02
   1 F= -.23726656E+02 E0= -.23729270E+02  d E =0.784290E-02
