<?xml version="1.0" encoding="ISO-8859-1"?>
<modeling>
 <generator>
  <i name="program" type="string">vasp </i>
  <i name="version" type="string">5.2.12  </i>
  <i name="subversion" type="string">11Nov11 complex                                                      parallel </i>
  <i name="platform" type="string">LinuxIFC </i>
  <i name="date" type="string">2012 10 31 </i>
  <i name="time" type="string">16:13:13 </i>
 </generator>
 <incar>
  <i type="string" name="PREC">normal</i>
  <i name="ENCUT">    350.00000000</i>
 </incar>
 <kpoints>
  <generation param="Monkhorst-Pack">
   <v type="int" name="divisions">       8        8        8 </v>
   <v name="usershift">      0.00000000       0.00000000       0.00000000 </v>
   <v name="genvec1">      0.12500000       0.00000000       0.00000000 </v>
   <v name="genvec2">      0.00000000       0.12500000       0.00000000 </v>
   <v name="genvec3">      0.00000000       0.00000000       0.12500000 </v>
   <v name="shift">      0.50000000       0.50000000       0.50000000 </v>
  </generation>
  <varray name="kpointlist" >
   <v>       0.06250000       0.06250000       0.06250000 </v>
   <v>       0.18750000       0.06250000       0.06250000 </v>
   <v>       0.31250000       0.06250000       0.06250000 </v>
   <v>       0.43750000       0.06250000       0.06250000 </v>
   <v>       0.18750000       0.18750000       0.06250000 </v>
   <v>       0.31250000       0.18750000       0.06250000 </v>
   <v>       0.43750000       0.18750000       0.06250000 </v>
   <v>       0.31250000       0.31250000       0.06250000 </v>
   <v>       0.43750000       0.31250000       0.06250000 </v>
   <v>       0.43750000       0.43750000       0.06250000 </v>
   <v>       0.18750000       0.18750000       0.18750000 </v>
   <v>       0.31250000       0.18750000       0.18750000 </v>
   <v>       0.43750000       0.18750000       0.18750000 </v>
   <v>       0.31250000       0.31250000       0.18750000 </v>
   <v>       0.43750000       0.31250000       0.18750000 </v>
   <v>       0.43750000       0.43750000       0.18750000 </v>
   <v>       0.31250000       0.31250000       0.31250000 </v>
   <v>       0.43750000       0.31250000       0.31250000 </v>
   <v>       0.43750000       0.43750000       0.31250000 </v>
   <v>       0.43750000       0.43750000       0.43750000 </v>
  </varray>
  <varray name="weights" >
   <v>       0.01562500 </v>
   <v>       0.04687500 </v>
   <v>       0.04687500 </v>
   <v>       0.04687500 </v>
   <v>       0.04687500 </v>
   <v>       0.09375000 </v>
   <v>       0.09375000 </v>
   <v>       0.04687500 </v>
   <v>       0.09375000 </v>
   <v>       0.04687500 </v>
   <v>       0.01562500 </v>
   <v>       0.04687500 </v>
   <v>       0.04687500 </v>
   <v>       0.04687500 </v>
   <v>       0.09375000 </v>
   <v>       0.04687500 </v>
   <v>       0.01562500 </v>
   <v>       0.04687500 </v>
   <v>       0.04687500 </v>
   <v>       0.01562500 </v>
  </varray>
 </kpoints>
 <parameters>
  <separator name="general" >
   <i type="string" name="SYSTEM">unknown system</i>
   <i type="logical" name="LCOMPAT"> F  </i>
  </separator>
  <separator name="electronic" >
   <i type="string" name="PREC">normal</i>
   <i name="ENMAX">    350.00000000</i>
   <i name="ENAUG">    332.07500000</i>
   <i name="EDIFF">      0.00010000</i>
   <i type="int" name="IALGO">    38</i>
   <i type="int" name="IWAVPR">    10</i>
   <i type="int" name="NBANDS">     9</i>
   <i name="NELECT">     10.00000000</i>
   <i type="int" name="TURBO">     0</i>
   <i type="int" name="IRESTART">     0</i>
   <i type="int" name="NREBOOT">     0</i>
   <i type="int" name="NMIN">     0</i>
   <i name="EREF">      0.00000000</i>
   <separator name="electronic smearing" >
    <i type="int" name="ISMEAR">     1</i>
    <i name="SIGMA">      0.20000000</i>
    <i name="KSPACING">      0.50000000</i>
    <i type="logical" name="KGAMMA"> T  </i>
   </separator>
   <separator name="electronic projectors" >
    <i type="logical" name="LREAL"> F  </i>
    <v name="ROPT">      0.00000000</v>
    <i type="int" name="LMAXPAW">  -100</i>
    <i type="int" name="LMAXMIX">     2</i>
    <i type="logical" name="NLSPLINE"> F  </i>
   </separator>
   <separator name="electronic startup" >
    <i type="int" name="ISTART">     0</i>
    <i type="int" name="ICHARG">     2</i>
    <i type="int" name="INIWAV">     1</i>
   </separator>
   <separator name="electronic spin" >
    <i type="int" name="ISPIN">     1</i>
    <i type="logical" name="LNONCOLLINEAR"> F  </i>
    <v name="MAGMOM">      1.00000000      1.00000000</v>
    <i name="NUPDOWN">     -1.00000000</i>
    <i type="logical" name="LSORBIT"> F  </i>
    <v name="SAXIS">      0.00000000      0.00000000      1.00000000</v>
    <i type="logical" name="LSPIRAL"> F  </i>
    <v name="QSPIRAL">      0.00000000      0.00000000      0.00000000</v>
    <i type="logical" name="LZEROZ"> F  </i>
   </separator>
   <separator name="electronic exchange-correlation" >
    <i type="logical" name="LASPH"> F  </i>
    <i type="logical" name="LMETAGGA"> F  </i>
   </separator>
   <separator name="electronic convergence" >
    <i type="int" name="NELM">    60</i>
    <i type="int" name="NELMDL">    -5</i>
    <i type="int" name="NELMIN">     2</i>
    <i name="ENINI">    350.00000000</i>
    <separator name="electronic convergence detail" >
     <i type="logical" name="LDIAG"> T  </i>
     <i type="logical" name="LSUBROT"> T  </i>
     <i name="WEIMIN">      0.00000000</i>
     <i name="EBREAK">      0.00000278</i>
     <i name="DEPER">      0.30000000</i>
     <i type="int" name="NRMM">     4</i>
     <i name="TIME">      0.40000000</i>
    </separator>
   </separator>
   <separator name="electronic mixer" >
    <i name="AMIX">      0.40000000</i>
    <i name="BMIX">      1.00000000</i>
    <i name="AMIN">      0.10000000</i>
    <i name="AMIX_MAG">      1.60000000</i>
    <i name="BMIX_MAG">      1.00000000</i>
    <separator name="electronic mixer details" >
     <i type="int" name="IMIX">     4</i>
     <i type="int" name="MAXMIX">   -45</i>
     <i name="WC">    100.00000000</i>
     <i type="int" name="INIMIX">     1</i>
     <i type="int" name="MIXPRE">     1</i>
     <i type="int" name="MREMOVE">     5</i>
    </separator>
   </separator>
   <separator name="electronic dipolcorrection" >
    <i type="logical" name="LDIPOL"> F  </i>
    <i type="logical" name="LMONO"> F  </i>
    <i type="int" name="IDIPOL">     0</i>
    <i name="EPSILON">      1.00000000</i>
    <v name="DIPOL">   -100.00000000   -100.00000000   -100.00000000</v>
    <i name="EFIELD">      0.00000000</i>
   </separator>
  </separator>
  <separator name="grids" >
   <i type="int" name="NGX">    16</i>
   <i type="int" name="NGY">    16</i>
   <i type="int" name="NGZ">    16</i>
   <i type="int" name="NGXF">    32</i>
   <i type="int" name="NGYF">    32</i>
   <i type="int" name="NGZF">    32</i>
   <i type="logical" name="ADDGRID"> F  </i>
  </separator>
  <separator name="ionic" >
   <i type="int" name="NSW">     0</i>
   <i type="int" name="IBRION">    -1</i>
   <i type="int" name="ISIF">     2</i>
   <i name="PSTRESS">      0.00000000</i>
   <i name="EDIFFG">      0.00100000</i>
   <i type="int" name="NFREE">     0</i>
   <i name="POTIM">      0.50000000</i>
   <i name="SMASS">     -3.00000000</i>
   <i name="SCALEE">      1.00000000</i>
  </separator>
  <separator name="ionic md" >
   <i name="TEBEG">      0.00010000</i>
   <i name="TEEND">      0.00010000</i>
   <i type="int" name="NBLOCK">     1</i>
   <i type="int" name="KBLOCK">     1</i>
   <i type="int" name="NPACO">   256</i>
   <i name="APACO">     16.00000000</i>
  </separator>
  <separator name="symmetry" >
   <i type="int" name="ISYM">     2</i>
   <i name="SYMPREC">      0.00001000</i>
  </separator>
  <separator name="dos" >
   <i type="logical" name="LORBIT"> F  </i>
   <v name="RWIGS">     -1.00000000</v>
   <i type="int" name="NEDOS">   301</i>
   <i name="EMIN">     10.00000000</i>
   <i name="EMAX">    -10.00000000</i>
   <i name="EFERMI">      0.00000000</i>
  </separator>
  <separator name="writing" >
   <i type="int" name="NWRITE">     2</i>
   <i type="logical" name="LWAVE"> T  </i>
   <i type="logical" name="LCHARG"> T  </i>
   <i type="logical" name="LPARD"> F  </i>
   <i type="logical" name="LVTOT"> F  </i>
   <i type="logical" name="LVHAR"> F  </i>
   <i type="logical" name="LELF"> F  </i>
   <i type="logical" name="LOPTICS"> F  </i>
   <v name="STM">      0.00000000      0.00000000      0.00000000      0.00000000      0.00000000      0.00000000      0.00000000</v>
  </separator>
  <separator name="performance" >
   <i type="int" name="NPAR">     1</i>
   <i type="int" name="NSIM">     4</i>
   <i type="int" name="NBLK">    -1</i>
   <i type="logical" name="LPLANE"> T  </i>
   <i type="logical" name="LSCALAPACK"> F  </i>
   <i type="logical" name="LSCAAWARE"> F  </i>
   <i type="logical" name="LSCALU"> F  </i>
   <i type="logical" name="LASYNC"> F  </i>
   <i type="logical" name="LORBITALREAL"> F  </i>
  </separator>
  <separator name="miscellaneous" >
   <i type="int" name="IDIOT">     3</i>
   <i type="logical" name="LMUSIC"> F  </i>
   <v name="POMASS">    180.94800000</v>
   <v name="DARWINR">      0.00000000</v>
   <v name="DARWINV">      1.00000000</v>
   <i type="logical" name="LCORR"> T  </i>
  </separator>
  <i type="logical" name="GGA_COMPAT"> T  </i>
  <i type="logical" name="LBERRY"> F  </i>
  <i type="int" name="ICORELEVEL">     0</i>
  <i type="logical" name="LDAU"> F  </i>
  <i type="int" name="I_CONSTRAINED_M">     0</i>
  <separator name="electronic exchange-correlation" >
   <i type="string" name="GGA">--</i>
   <i type="int" name="VOSKOWN">     0</i>
   <i type="logical" name="LHFCALC"> F  </i>
   <i type="string" name="PRECFOCK"></i>
   <i type="logical" name="LHFONE"> F  </i>
   <i type="logical" name="LRHFCALC"> F  </i>
   <i type="logical" name="LTHOMAS"> F  </i>
   <i type="logical" name="LMODELHF"> F  </i>
   <i name="ENCUT4O">     -1.00000000</i>
   <i type="int" name="EXXOEP">     0</i>
   <i type="int" name="FOURORBIT">     0</i>
   <i name="AEXX">      0.00000000</i>
   <i name="HFALPHA">      0.00000000</i>
   <i name="ALDAX">      1.00000000</i>
   <i name="AGGAX">      1.00000000</i>
   <i name="ALDAC">      1.00000000</i>
   <i name="AGGAC">      1.00000000</i>
   <i type="int" name="NKREDX">     1</i>
   <i type="int" name="NKREDY">     1</i>
   <i type="int" name="NKREDZ">     1</i>
   <i type="logical" name="SHIFTRED"> F  </i>
   <i type="logical" name="ODDONLY"> F  </i>
   <i type="logical" name="EVENONLY"> F  </i>
   <i type="int" name="LMAXFOCK">     0</i>
   <i type="int" name="NMAXFOCKAE">     0</i>
   <i type="logical" name="LFOCKAEDFT"> F  </i>
   <i name="HFSCREEN">      0.00000000</i>
   <i name="HFSCREENC">      0.00000000</i>
  </separator>
  <separator name="vdW DFT" >
   <i type="logical" name="LUSE_VDW"> F  </i>
   <i name="Zab_VDW">     -0.84910000</i>
   <i name="PARAM1">      0.12340000</i>
   <i name="PARAM2">      1.00000000</i>
   <i name="PARAM3">      0.00000000</i>
  </separator>
  <separator name="model GW" >
   <i type="int" name="MODEL_GW">     0</i>
   <i name="MODEL_EPS0">     10.87940730</i>
   <i name="MODEL_ALPHA">      1.00000000</i>
  </separator>
  <separator name="linear response parameters" >
   <i type="logical" name="LEPSILON"> F  </i>
   <i type="logical" name="LRPA"> F  </i>
   <i type="logical" name="LNABLA"> F  </i>
   <i type="logical" name="LVEL"> F  </i>
   <i type="int" name="KINTER">     0</i>
   <i name="CSHIFT">      0.10000000</i>
   <i name="OMEGAMAX">     -1.00000000</i>
  </separator>
  <separator name="orbital magnetization" >
   <i type="logical" name="NUCIND"> F  </i>
   <v name="MAGPOS">      0.00000000      0.00000000      0.00000000</v>
   <i type="logical" name="LNICSALL"> T  </i>
   <i type="logical" name="ORBITALMAG"> F  </i>
   <i type="logical" name="LMAGBLOCH"> F  </i>
   <i type="logical" name="LCHIMAG"> F  </i>
   <i type="logical" name="LGAUGE"> T  </i>
   <i type="int" name="MAGATOM">     0</i>
   <v name="MAGDIPOL">      0.00000000      0.00000000      0.00000000</v>
   <v name="AVECCONST">      0.00000000      0.00000000      0.00000000</v>
  </separator>
  <separator name="response functions" >
   <i type="logical" name="LADDER"> F  </i>
   <i type="logical" name="LHARTREE"> T  </i>
   <i type="int" name="IBSE">     0</i>
   <i type="logical" name="LTCTE"> F  </i>
   <i type="logical" name="LTETE"> F  </i>
   <i type="logical" name="LFXCEPS"> F  </i>
   <i type="logical" name="L2ORDER"> F  </i>
   <i type="logical" name="LUSEW"> F  </i>
   <i name="ENCUTGW">     -2.00000000</i>
   <i name="ENCUTGWSOFT">     -2.00000000</i>
   <i name="ENCUTLF">     -1.00000000</i>
   <i type="int" name="LMAXMP2">    -1</i>
   <i name="SCISSOR">      0.00000000</i>
   <i type="int" name="NOMEGA">     0</i>
   <i type="int" name="NOMEGAR">     0</i>
   <i type="int" name="NBANDSGW">    -1</i>
   <i type="int" name="NBANDSO">    -1</i>
   <i type="int" name="NBANDSV">    -1</i>
   <i name="OPTEMAX">      0.00000000</i>
   <i type="int" name="NELM">     1</i>
   <i type="int" name="DIM">     3</i>
   <i type="int" name="ANTIRES">     0</i>
   <i name="OMEGAMAX">    -30.00000000</i>
   <i name="OMEGATL">   -200.00000000</i>
   <i type="int" name="OMEGAGRID">     0</i>
   <i name="CSHIFT">     -0.10000000</i>
   <i type="logical" name="SELFENERGY"> F  </i>
   <i type="logical" name="LSPECTRAL"> F  </i>
   <i type="logical" name="ODDONLYGW"> F  </i>
   <i type="logical" name="EVENONLYGW"> F  </i>
   <i type="int" name="NKREDLFX">     1</i>
   <i type="int" name="NKREDLFY">     1</i>
   <i type="int" name="NKREDLFZ">     1</i>
   <i type="int" name="MAXMEM">  1800</i>
   <i type="int" name="TELESCOPE">     0</i>
  </separator>
 </parameters>
 <atominfo>
  <atoms>       2 </atoms>
  <types>       1 </types>
  <array name="atoms" >
   <dimension dim="1">ion</dimension>
   <field type="string">element</field>
   <field type="int">atomtype</field>
   <set>
    <rc><c>Ta</c><c>   1</c></rc>
    <rc><c>Ta</c><c>   1</c></rc>
   </set>
  </array>
  <array name="atomtypes" >
   <dimension dim="1">type</dimension>
   <field type="int">atomspertype</field>
   <field type="string">element</field>
   <field>mass</field>
   <field>valence</field>
   <field type="string">pseudopotential</field>
   <set>
    <rc><c>   2</c><c>Ta</c><c>    180.94800000</c><c>      5.00000000</c><c>  PAW_PBE Ta 17Jan2003                  </c></rc>
   </set>
  </array>
 </atominfo>
 <structure name="initialpos" >
  <crystal>
   <varray name="basis" >
    <v>       3.31000000       0.00000000       0.00000000 </v>
    <v>       0.00000000       3.31000000       0.00000000 </v>
    <v>       0.00000000       0.00000000       3.31000000 </v>
   </varray>
   <i name="volume">     36.26469100 </i>
   <varray name="rec_basis" >
    <v>       0.30211480       0.00000000       0.00000000 </v>
    <v>       0.00000000       0.30211480       0.00000000 </v>
    <v>       0.00000000       0.00000000       0.30211480 </v>
   </varray>
  </crystal>
  <varray name="positions" >
   <v>       0.00000000       0.00000000       0.00000000 </v>
   <v>       0.50000000       0.50000000       0.50000000 </v>
  </varray>
 </structure>
 <calculation>
  <scstep>
   <time name="dav">    0.28    0.28</time>
   <time name="total">    0.34    0.34</time>
   <energy>
    <i name="alphaZ">     61.16668139 </i>
    <i name="ewald">   -395.80201976 </i>
    <i name="hartreedc">     -5.00905224 </i>
    <i name="XCdc">   -133.37165233 </i>
    <i name="pawpsdc">    296.55643700 </i>
    <i name="pawaedc">   -147.98178006 </i>
    <i name="eentropy">     -0.00533947 </i>
    <i name="bandstr">     63.90394624 </i>
    <i name="atom">    261.29242962 </i>
    <i name="e_fr_energy">      0.74965037 </i>
    <i name="e_wo_entrp">      0.75498985 </i>
    <i name="e_0_energy">      0.75143020 </i>
   </energy>
  </scstep>
  <scstep>
   <time name="dav">    0.39    0.39</time>
   <time name="total">    0.40    0.41</time>
   <energy>
    <i name="e_fr_energy">    -23.91979915 </i>
    <i name="e_wo_entrp">    -23.91285712 </i>
    <i name="e_0_energy">    -23.91748514 </i>
   </energy>
  </scstep>
  <scstep>
   <time name="dav">    0.35    0.35</time>
   <time name="total">    0.36    0.37</time>
   <energy>
    <i name="e_fr_energy">    -24.70139003 </i>
    <i name="e_wo_entrp">    -24.70314311 </i>
    <i name="e_0_energy">    -24.70197439 </i>
   </energy>
  </scstep>
  <scstep>
   <time name="dav">    0.42    0.42</time>
   <time name="total">    0.43    0.50</time>
   <energy>
    <i name="e_fr_energy">    -24.71502299 </i>
    <i name="e_wo_entrp">    -24.71728810 </i>
    <i name="e_0_energy">    -24.71577803 </i>
   </energy>
  </scstep>
  <scstep>
   <time name="dav">    0.36    0.36</time>
   <time name="total">    0.41    0.42</time>
   <energy>
    <i name="e_fr_energy">    -24.71503316 </i>
    <i name="e_wo_entrp">    -24.71729947 </i>
    <i name="e_0_energy">    -24.71578860 </i>
   </energy>
  </scstep>
  <scstep>
   <time name="dav">    0.28    0.29</time>
   <time name="total">    0.38    0.40</time>
   <energy>
    <i name="e_fr_energy">    -24.03809669 </i>
    <i name="e_wo_entrp">    -24.04120081 </i>
    <i name="e_0_energy">    -24.03913140 </i>
   </energy>
  </scstep>
  <scstep>
   <time name="dav">    0.29    0.29</time>
   <time name="total">    0.39    0.47</time>
   <energy>
    <i name="e_fr_energy">    -23.72798320 </i>
    <i name="e_wo_entrp">    -23.73569628 </i>
    <i name="e_0_energy">    -23.73055422 </i>
   </energy>
  </scstep>
  <scstep>
   <time name="dav">    0.34    0.34</time>
   <time name="total">    0.44    0.46</time>
   <energy>
    <i name="e_fr_energy">    -23.72740131 </i>
    <i name="e_wo_entrp">    -23.73500991 </i>
    <i name="e_0_energy">    -23.72993751 </i>
   </energy>
  </scstep>
  <scstep>
   <time name="dav">    0.35    0.35</time>
   <time name="total">    0.45    0.53</time>
   <energy>
    <i name="e_fr_energy">    -23.72666275 </i>
    <i name="e_wo_entrp">    -23.73451318 </i>
    <i name="e_0_energy">    -23.72927956 </i>
   </energy>
  </scstep>
  <scstep>
   <time name="dav">    0.26    0.26</time>
   <time name="total">    0.32    0.33</time>
   <energy>
    <i name="alphaZ">     61.16668139 </i>
    <i name="ewald">   -395.80201976 </i>
    <i name="hartreedc">     -1.15379397 </i>
    <i name="XCdc">   -131.98901528 </i>
    <i name="pawpsdc">    386.94167810 </i>
    <i name="pawaedc">   -240.11797143 </i>
    <i name="eentropy">      0.00784290 </i>
    <i name="bandstr">     35.92751273 </i>
    <i name="atom">    261.29242962 </i>
    <i name="e_fr_energy">    -23.72665570 </i>
    <i name="e_wo_entrp">    -23.73449860 </i>
    <i name="e_0_energy">    -23.72927000 </i>
   </energy>
  </scstep>
  <parameters_embedded>
   <separator name="dft+d2" >
    <i type="logical" name="LVDW"> F  </i>
   </separator>
  </parameters_embedded>
  <structure>
   <crystal>
    <varray name="basis" >
     <v>       3.31000000       0.00000000       0.00000000 </v>
     <v>       0.00000000       3.31000000       0.00000000 </v>
     <v>       0.00000000       0.00000000       3.31000000 </v>
    </varray>
    <i name="volume">     36.26469100 </i>
    <varray name="rec_basis" >
     <v>       0.30211480       0.00000000       0.00000000 </v>
     <v>       0.00000000       0.30211480       0.00000000 </v>
     <v>       0.00000000       0.00000000       0.30211480 </v>
    </varray>
   </crystal>
   <varray name="positions" >
    <v>       0.00000000       0.00000000       0.00000000 </v>
    <v>       0.50000000       0.50000000       0.50000000 </v>
   </varray>
  </structure>
  <varray name="forces" >
   <v>       0.00000000       0.00000000       0.00000000 </v>
   <v>       0.00000000       0.00000000       0.00000000 </v>
  </varray>
  <varray name="stress" >
   <v>      -4.12185213       0.00000000       0.00000000 </v>
   <v>       0.00000000      -4.12185213       0.00000000 </v>
   <v>       0.00000000       0.00000000      -4.12185213 </v>
  </varray>
  <energy>
   <i name="e_fr_energy">    -23.72665570 </i>
   <i name="e_wo_entrp">    -23.72927000 </i>
   <i name="e_0_energy">      0.00784290 </i>
  </energy>
  <time name="totalsc">    4.51    5.01</time>
  <eigenvalues>
   <array>
    <dimension dim="1">band</dimension>
    <dimension dim="2">kpoint</dimension>
    <dimension dim="3">spin</dimension>
    <field>eigene</field>
    <field>occ</field>
    <set>
     <set comment="spin 1">
      <set comment="kpoint 1">
       <r>   -1.9255    1.0000 </r>
       <r>    2.1101    1.0000 </r>
       <r>    2.1101    1.0000 </r>
       <r>    6.2997    0.0000 </r>
       <r>    6.2997    0.0000 </r>
       <r>    6.7320    0.0000 </r>
       <r>    9.5492    0.0000 </r>
       <r>    9.5492    0.0000 </r>
       <r>   10.5725    0.0000 </r>
      </set>
      <set comment="kpoint 2">
       <r>   -1.2812    1.0000 </r>
       <r>    2.4630    1.0000 </r>
       <r>    2.5677    1.0000 </r>
       <r>    6.0572   -0.0088 </r>
       <r>    6.1598   -0.0013 </r>
       <r>    7.2422    0.0000 </r>
       <r>    8.6845    0.0000 </r>
       <r>    8.8718    0.0000 </r>
       <r>    9.9683    0.0000 </r>
      </set>
      <set comment="kpoint 3">
       <r>   -0.1150    1.0000 </r>
       <r>    3.0017    1.0000 </r>
       <r>    3.1515    1.0000 </r>
       <r>    5.9277   -0.0342 </r>
       <r>    6.0126   -0.0166 </r>
       <r>    7.5264    0.0000 </r>
       <r>    7.5793    0.0000 </r>
       <r>    7.9743    0.0000 </r>
       <r>    8.5624    0.0000 </r>
      </set>
      <set comment="kpoint 4">
       <r>    1.3179    1.0000 </r>
       <r>    2.5742    1.0000 </r>
       <r>    4.1264    1.0000 </r>
       <r>    5.2301    1.0045 </r>
       <r>    6.2794   -0.0001 </r>
       <r>    6.8232    0.0000 </r>
       <r>    7.0402    0.0000 </r>
       <r>    7.5100    0.0000 </r>
       <r>    8.9255    0.0000 </r>
      </set>
      <set comment="kpoint 5">
       <r>   -0.7047    1.0000 </r>
       <r>    2.7302    1.0000 </r>
       <r>    3.0511    1.0000 </r>
       <r>    5.5602    0.8787 </r>
       <r>    5.8187    0.0163 </r>
       <r>    7.3333    0.0000 </r>
       <r>    8.0999    0.0000 </r>
       <r>    9.0389    0.0000 </r>
       <r>    9.0963    0.0000 </r>
      </set>
      <set comment="kpoint 6">
       <r>    0.2998    1.0000 </r>
       <r>    2.9369    1.0000 </r>
       <r>    3.7405    1.0000 </r>
       <r>    5.2545    1.0069 </r>
       <r>    5.5054    0.9874 </r>
       <r>    6.3546    0.0000 </r>
       <r>    8.0492    0.0000 </r>
       <r>    8.5192    0.0000 </r>
       <r>    9.1502    0.0000 </r>
      </set>
      <set comment="kpoint 7">
       <r>    1.4654    1.0000 </r>
       <r>    2.4833    1.0000 </r>
       <r>    4.3830    1.0000 </r>
       <r>    4.9760    1.0000 </r>
       <r>    5.4677    1.0227 </r>
       <r>    5.8492   -0.0161 </r>
       <r>    7.9095    0.0000 </r>
       <r>    8.0741    0.0000 </r>
       <r>   10.2244    0.0000 </r>
      </set>
      <set comment="kpoint 8">
       <r>    0.9049    1.0000 </r>
       <r>    2.5569    1.0000 </r>
       <r>    4.7287    1.0000 </r>
       <r>    4.7595    1.0000 </r>
       <r>    5.4587    1.0274 </r>
       <r>    5.4784    1.0155 </r>
       <r>    7.7933    0.0000 </r>
       <r>    9.3593    0.0000 </r>
       <r>   10.0620    0.0000 </r>
      </set>
      <set comment="kpoint 9">
       <r>    1.4733    1.0000 </r>
       <r>    2.0154    1.0000 </r>
       <r>    4.5746    1.0000 </r>
       <r>    4.8229    1.0000 </r>
       <r>    5.5847    0.8062 </r>
       <r>    5.7453    0.1835 </r>
       <r>    8.4866    0.0000 </r>
       <r>    9.1809    0.0000 </r>
       <r>   10.5316    0.0000 </r>
      </set>
      <set comment="kpoint 10">
       <r>    1.4375    1.0000 </r>
       <r>    1.6017    1.0000 </r>
       <r>    4.2316    1.0000 </r>
       <r>    4.3282    1.0000 </r>
       <r>    6.7032    0.0000 </r>
       <r>    6.7327    0.0000 </r>
       <r>    9.1993    0.0000 </r>
       <r>    9.6399    0.0000 </r>
       <r>   10.4901    0.0000 </r>
      </set>
      <set comment="kpoint 11">
       <r>   -0.1419    1.0000 </r>
       <r>    3.2756    1.0000 </r>
       <r>    3.2756    1.0000 </r>
       <r>    5.2831    1.0108 </r>
       <r>    5.2831    1.0108 </r>
       <r>    5.7899    0.0660 </r>
       <r>    9.0874    0.0000 </r>
       <r>    9.4786    0.0000 </r>
       <r>    9.4786    0.0000 </r>
      </set>
      <set comment="kpoint 12">
       <r>    0.8050    1.0000 </r>
       <r>    3.5447    1.0000 </r>
       <r>    3.6709    1.0000 </r>
       <r>    4.9081    1.0000 </r>
       <r>    5.0208    1.0000 </r>
       <r>    5.1724    1.0014 </r>
       <r>    9.0162    0.0000 </r>
       <r>    9.2243    0.0000 </r>
       <r>   10.1773    0.0000 </r>
      </set>
      <set comment="kpoint 13">
       <r>    1.8324    1.0000 </r>
       <r>    2.7702    1.0000 </r>
       <r>    4.1266    1.0000 </r>
       <r>    4.5362    1.0000 </r>
       <r>    5.2409    1.0055 </r>
       <r>    5.4908    1.0045 </r>
       <r>    8.5892    0.0000 </r>
       <r>    8.5914    0.0000 </r>
       <r>   10.3229    0.0000 </r>
      </set>
      <set comment="kpoint 14">
       <r>    1.5331    1.0000 </r>
       <r>    3.1299    1.0000 </r>
       <r>    4.5317    1.0000 </r>
       <r>    4.5709    1.0000 </r>
       <r>    4.7035    1.0000 </r>
       <r>    4.8519    1.0000 </r>
       <r>    9.0673    0.0000 </r>
       <r>    9.5973    0.0000 </r>
       <r>   10.1286    0.0000 </r>
      </set>
      <set comment="kpoint 15">
       <r>    2.0971    1.0000 </r>
       <r>    2.5601    1.0000 </r>
       <r>    4.3597    1.0000 </r>
       <r>    4.3980    1.0000 </r>
       <r>    5.2289    1.0044 </r>
       <r>    5.4116    1.0353 </r>
       <r>    9.1468    0.0000 </r>
       <r>    9.4497    0.0000 </r>
       <r>   10.5617    0.0000 </r>
      </set>
      <set comment="kpoint 16">
       <r>    2.1218    1.0000 </r>
       <r>    2.2394    1.0000 </r>
       <r>    4.1373    1.0000 </r>
       <r>    4.2009    1.0000 </r>
       <r>    6.0295   -0.0133 </r>
       <r>    6.1542   -0.0014 </r>
       <r>    9.6181    0.0000 </r>
       <r>    9.8692    0.0000 </r>
       <r>   10.5559    0.0000 </r>
      </set>
      <set comment="kpoint 17">
       <r>    2.5037    1.0000 </r>
       <r>    3.3852    1.0000 </r>
       <r>    4.3233    1.0000 </r>
       <r>    4.3233    1.0000 </r>
       <r>    4.5621    1.0000 </r>
       <r>    4.5621    1.0000 </r>
       <r>   10.1181    0.0000 </r>
       <r>   10.1274    0.0000 </r>
       <r>   10.1310    0.0000 </r>
      </set>
      <set comment="kpoint 18">
       <r>    2.9805    1.0000 </r>
       <r>    3.0891    1.0000 </r>
       <r>    4.2617    1.0000 </r>
       <r>    4.3730    1.0000 </r>
       <r>    4.6653    1.0000 </r>
       <r>    5.0913    1.0002 </r>
       <r>    9.9096    0.0000 </r>
       <r>    9.9928    0.0000 </r>
       <r>   10.4944    0.0000 </r>
      </set>
      <set comment="kpoint 19">
       <r>    3.1977    1.0000 </r>
       <r>    3.2876    1.0000 </r>
       <r>    4.0941    1.0000 </r>
       <r>    4.2448    1.0000 </r>
       <r>    5.1340    1.0006 </r>
       <r>    5.3802    1.0312 </r>
       <r>   10.2221    0.0000 </r>
       <r>   10.3011    0.0000 </r>
       <r>   10.6238    0.0000 </r>
      </set>
      <set comment="kpoint 20">
       <r>    3.8125    1.0000 </r>
       <r>    4.2559    1.0000 </r>
       <r>    4.2559    1.0000 </r>
       <r>    4.5417    1.0000 </r>
       <r>    4.6946    1.0000 </r>
       <r>    4.6946    1.0000 </r>
       <r>   10.6460    0.0000 </r>
       <r>   10.6468    0.0000 </r>
       <r>   10.6569    0.0000 </r>
      </set>
     </set>
    </set>
   </array>
  </eigenvalues>
  <separator name="orbital magnetization" >
   <v name="MAGDIPOLOUT">      0.00000000      0.00000000      0.00000000</v>
  </separator>
  <dos>
   <i name="efermi">      5.66342115 </i>
   <total>
    <array>
     <dimension dim="1">gridpoints</dimension>
     <dimension dim="2">spin</dimension>
     <field>energy</field>
     <field>total</field>
     <field>integrated</field>
     <set>
      <set comment="spin 1">
       <r>    -3.9255     0.0000     0.0000 </r>
       <r>    -3.8703     0.0000     0.0000 </r>
       <r>    -3.8150     0.0000     0.0000 </r>
       <r>    -3.7597     0.0000     0.0000 </r>
       <r>    -3.7044     0.0000     0.0000 </r>
       <r>    -3.6492     0.0000     0.0000 </r>
       <r>    -3.5939     0.0000     0.0000 </r>
       <r>    -3.5386     0.0000     0.0000 </r>
       <r>    -3.4833     0.0000     0.0000 </r>
       <r>    -3.4281     0.0000     0.0000 </r>
       <r>    -3.3728     0.0000     0.0000 </r>
       <r>    -3.3175     0.0000     0.0000 </r>
       <r>    -3.2622     0.0000     0.0000 </r>
       <r>    -3.2070     0.0000     0.0000 </r>
       <r>    -3.1517     0.0000     0.0000 </r>
       <r>    -3.0964     0.0000     0.0000 </r>
       <r>    -3.0411     0.0000     0.0000 </r>
       <r>    -2.9859     0.0000     0.0000 </r>
       <r>    -2.9306     0.0000     0.0000 </r>
       <r>    -2.8753     0.0000     0.0000 </r>
       <r>    -2.8200     0.0000     0.0000 </r>
       <r>    -2.7648     0.0000     0.0000 </r>
       <r>    -2.7095     0.0000     0.0000 </r>
       <r>    -2.6542     0.0000     0.0000 </r>
       <r>    -2.5989     0.0000     0.0000 </r>
       <r>    -2.5437     0.0000     0.0000 </r>
       <r>    -2.4884    -0.0001     0.0000 </r>
       <r>    -2.4331    -0.0004     0.0000 </r>
       <r>    -2.3778    -0.0012    -0.0001 </r>
       <r>    -2.3226    -0.0030    -0.0003 </r>
       <r>    -2.2673    -0.0055    -0.0006 </r>
       <r>    -2.2120    -0.0070    -0.0010 </r>
       <r>    -2.1567    -0.0023    -0.0011 </r>
       <r>    -2.1015     0.0152    -0.0002 </r>
       <r>    -2.0462     0.0487     0.0025 </r>
       <r>    -1.9909     0.0908     0.0075 </r>
       <r>    -1.9356     0.1234     0.0143 </r>
       <r>    -1.8804     0.1291     0.0214 </r>
       <r>    -1.8251     0.1043     0.0272 </r>
       <r>    -1.7698     0.0621     0.0306 </r>
       <r>    -1.7145     0.0207     0.0318 </r>
       <r>    -1.6593    -0.0091     0.0313 </r>
       <r>    -1.6040    -0.0254     0.0299 </r>
       <r>    -1.5487    -0.0257     0.0284 </r>
       <r>    -1.4934     0.0020     0.0285 </r>
       <r>    -1.4382     0.0734     0.0326 </r>
       <r>    -1.3829     0.1883     0.0430 </r>
       <r>    -1.3276     0.3120     0.0603 </r>
       <r>    -1.2723     0.3866     0.0816 </r>
       <r>    -1.2171     0.3704     0.1021 </r>
       <r>    -1.1618     0.2716     0.1171 </r>
       <r>    -1.1065     0.1406     0.1249 </r>
       <r>    -1.0512     0.0315     0.1266 </r>
       <r>    -0.9960    -0.0274     0.1251 </r>
       <r>    -0.9407    -0.0304     0.1234 </r>
       <r>    -0.8854     0.0225     0.1247 </r>
       <r>    -0.8301     0.1270     0.1317 </r>
       <r>    -0.7749     0.2579     0.1460 </r>
       <r>    -0.7196     0.3629     0.1660 </r>
       <r>    -0.6643     0.3888     0.1875 </r>
       <r>    -0.6090     0.3210     0.2052 </r>
       <r>    -0.5538     0.1956     0.2161 </r>
       <r>    -0.4985     0.0702     0.2199 </r>
       <r>    -0.4432    -0.0144     0.2191 </r>
       <r>    -0.3879    -0.0428     0.2168 </r>
       <r>    -0.3327    -0.0092     0.2163 </r>
       <r>    -0.2774     0.0919     0.2214 </r>
       <r>    -0.2221     0.2487     0.2351 </r>
       <r>    -0.1668     0.4103     0.2578 </r>
       <r>    -0.1116     0.4989     0.2854 </r>
       <r>    -0.0563     0.4618     0.3109 </r>
       <r>    -0.0010     0.3205     0.3286 </r>
       <r>     0.0543     0.1686     0.3379 </r>
       <r>     0.1095     0.1171     0.3444 </r>
       <r>     0.1648     0.2240     0.3568 </r>
       <r>     0.2201     0.4519     0.3817 </r>
       <r>     0.2754     0.6788     0.4193 </r>
       <r>     0.3306     0.7701     0.4618 </r>
       <r>     0.3859     0.6689     0.4988 </r>
       <r>     0.4412     0.4320     0.5227 </r>
       <r>     0.4964     0.1787     0.5326 </r>
       <r>     0.5517     0.0095     0.5331 </r>
       <r>     0.6070    -0.0334     0.5312 </r>
       <r>     0.6623     0.0476     0.5339 </r>
       <r>     0.7175     0.2254     0.5463 </r>
       <r>     0.7728     0.4468     0.5710 </r>
       <r>     0.8281     0.6317     0.6059 </r>
       <r>     0.8834     0.7004     0.6447 </r>
       <r>     0.9386     0.6186     0.6788 </r>
       <r>     0.9939     0.4211     0.7021 </r>
       <r>     1.0492     0.1900     0.7126 </r>
       <r>     1.1045     0.0119     0.7133 </r>
       <r>     1.1597    -0.0485     0.7106 </r>
       <r>     1.2150     0.0579     0.7138 </r>
       <r>     1.2703     0.3755     0.7346 </r>
       <r>     1.3256     0.9197     0.7854 </r>
       <r>     1.3808     1.6133     0.8746 </r>
       <r>     1.4361     2.2511     0.9990 </r>
       <r>     1.4914     2.5714     1.1411 </r>
       <r>     1.5467     2.4195     1.2749 </r>
       <r>     1.6019     1.8685     1.3781 </r>
       <r>     1.6572     1.1749     1.4431 </r>
       <r>     1.7125     0.6083     1.4767 </r>
       <r>     1.7678     0.3099     1.4938 </r>
       <r>     1.8230     0.2850     1.5096 </r>
       <r>     1.8783     0.4878     1.5366 </r>
       <r>     1.9336     0.8778     1.5851 </r>
       <r>     1.9889     1.3880     1.6618 </r>
       <r>     2.0441     1.8667     1.7650 </r>
       <r>     2.0994     2.1067     1.8814 </r>
       <r>     2.1547     1.9737     1.9905 </r>
       <r>     2.2100     1.5256     2.0748 </r>
       <r>     2.2652     1.0116     2.1308 </r>
       <r>     2.3205     0.7499     2.1722 </r>
       <r>     2.3758     0.9559     2.2250 </r>
       <r>     2.4311     1.6035     2.3137 </r>
       <r>     2.4863     2.4020     2.4465 </r>
       <r>     2.5416     2.9426     2.6091 </r>
       <r>     2.5969     2.9537     2.7724 </r>
       <r>     2.6522     2.4744     2.9091 </r>
       <r>     2.7074     1.7989     3.0086 </r>
       <r>     2.7627     1.2629     3.0784 </r>
       <r>     2.8180     1.0658     3.1373 </r>
       <r>     2.8733     1.2278     3.2052 </r>
       <r>     2.9285     1.6330     3.2954 </r>
       <r>     2.9838     2.0962     3.4113 </r>
       <r>     3.0391     2.4393     3.5461 </r>
       <r>     3.0944     2.5585     3.6875 </r>
       <r>     3.1496     2.4431     3.8226 </r>
       <r>     3.2049     2.1424     3.9410 </r>
       <r>     3.2602     1.7254     4.0364 </r>
       <r>     3.3155     1.2670     4.1064 </r>
       <r>     3.3707     0.8500     4.1534 </r>
       <r>     3.4260     0.5576     4.1842 </r>
       <r>     3.4813     0.4487     4.2090 </r>
       <r>     3.5366     0.5330     4.2385 </r>
       <r>     3.5918     0.7631     4.2807 </r>
       <r>     3.6471     1.0389     4.3381 </r>
       <r>     3.7024     1.2266     4.4059 </r>
       <r>     3.7577     1.2082     4.4727 </r>
       <r>     3.8129     0.9574     4.5256 </r>
       <r>     3.8682     0.5879     4.5581 </r>
       <r>     3.9235     0.3173     4.5756 </r>
       <r>     3.9788     0.3552     4.5952 </r>
       <r>     4.0340     0.7893     4.6389 </r>
       <r>     4.0893     1.5451     4.7243 </r>
       <r>     4.1446     2.4456     4.8595 </r>
       <r>     4.1999     3.3123     5.0425 </r>
       <r>     4.2551     4.0179     5.2646 </r>
       <r>     4.3104     4.4677     5.5116 </r>
       <r>     4.3657     4.5923     5.7654 </r>
       <r>     4.4210     4.4036     6.0088 </r>
       <r>     4.4762     4.0337     6.2318 </r>
       <r>     4.5315     3.6634     6.4343 </r>
       <r>     4.5868     3.3971     6.6221 </r>
       <r>     4.6421     3.2247     6.8003 </r>
       <r>     4.6973     3.0873     6.9710 </r>
       <r>     4.7526     2.9430     7.1336 </r>
       <r>     4.8079     2.7745     7.2870 </r>
       <r>     4.8632     2.5774     7.4295 </r>
       <r>     4.9184     2.3680     7.5604 </r>
       <r>     4.9737     2.2011     7.6820 </r>
       <r>     5.0290     2.1660     7.8017 </r>
       <r>     5.0843     2.3404     7.9311 </r>
       <r>     5.1395     2.7129     8.0811 </r>
       <r>     5.1948     3.1523     8.2553 </r>
       <r>     5.2501     3.5004     8.4488 </r>
       <r>     5.3054     3.7237     8.6546 </r>
       <r>     5.3606     3.9318     8.8719 </r>
       <r>     5.4159     4.1957     9.1039 </r>
       <r>     5.4712     4.3789     9.3459 </r>
       <r>     5.5264     4.2265     9.5795 </r>
       <r>     5.5817     3.6447     9.7810 </r>
       <r>     5.6370     2.8492     9.9385 </r>
       <r>     5.6923     2.2038    10.0603 </r>
       <r>     5.7475     1.9236    10.1666 </r>
       <r>     5.8028     1.9451    10.2741 </r>
       <r>     5.8581     2.0533    10.3876 </r>
       <r>     5.9134     2.0904    10.5032 </r>
       <r>     5.9686     2.0377    10.6158 </r>
       <r>     6.0239     1.9472    10.7234 </r>
       <r>     6.0792     1.8572    10.8261 </r>
       <r>     6.1345     1.7805    10.9245 </r>
       <r>     6.1897     1.7293    11.0201 </r>
       <r>     6.2450     1.7009    11.1141 </r>
       <r>     6.3003     1.6416    11.2048 </r>
       <r>     6.3556     1.4615    11.2856 </r>
       <r>     6.4108     1.1203    11.3475 </r>
       <r>     6.4661     0.6990    11.3862 </r>
       <r>     6.5214     0.3719    11.4067 </r>
       <r>     6.5767     0.2920    11.4229 </r>
       <r>     6.6319     0.4808    11.4495 </r>
       <r>     6.6872     0.8075    11.4941 </r>
       <r>     6.7425     1.0703    11.5533 </r>
       <r>     6.7978     1.1251    11.6155 </r>
       <r>     6.8530     0.9695    11.6690 </r>
       <r>     6.9083     0.7206    11.7089 </r>
       <r>     6.9636     0.5125    11.7372 </r>
       <r>     7.0189     0.4081    11.7598 </r>
       <r>     7.0741     0.3953    11.7816 </r>
       <r>     7.1294     0.4384    11.8058 </r>
       <r>     7.1847     0.5143    11.8343 </r>
       <r>     7.2400     0.6054    11.8677 </r>
       <r>     7.2952     0.6926    11.9060 </r>
       <r>     7.3505     0.7756    11.9489 </r>
       <r>     7.4058     0.8792    11.9975 </r>
       <r>     7.4611     1.0108    12.0534 </r>
       <r>     7.5163     1.1137    12.1149 </r>
       <r>     7.5716     1.0967    12.1755 </r>
       <r>     7.6269     0.9313    12.2270 </r>
       <r>     7.6822     0.7097    12.2662 </r>
       <r>     7.7374     0.5916    12.2989 </r>
       <r>     7.7927     0.6972    12.3375 </r>
       <r>     7.8480     1.0455    12.3953 </r>
       <r>     7.9033     1.5626    12.4816 </r>
       <r>     7.9585     2.1082    12.5982 </r>
       <r>     8.0138     2.4940    12.7360 </r>
       <r>     8.0691     2.5329    12.8760 </r>
       <r>     8.1244     2.1428    12.9945 </r>
       <r>     8.1796     1.4347    13.0738 </r>
       <r>     8.2349     0.6881    13.1118 </r>
       <r>     8.2902     0.2178    13.1239 </r>
       <r>     8.3455     0.2294    13.1365 </r>
       <r>     8.4007     0.7348    13.1771 </r>
       <r>     8.4560     1.5363    13.2621 </r>
       <r>     8.5113     2.2865    13.3884 </r>
       <r>     8.5666     2.6448    13.5346 </r>
       <r>     8.6218     2.4665    13.6710 </r>
       <r>     8.6771     1.8838    13.7751 </r>
       <r>     8.7324     1.2077    13.8419 </r>
       <r>     8.7877     0.7353    13.8825 </r>
       <r>     8.8429     0.6217    13.9169 </r>
       <r>     8.8982     0.8873    13.9659 </r>
       <r>     8.9535     1.4897    14.0483 </r>
       <r>     9.0088     2.3459    14.1779 </r>
       <r>     9.0640     3.2745    14.3589 </r>
       <r>     9.1193     3.9699    14.5784 </r>
       <r>     9.1746     4.1255    14.8064 </r>
       <r>     9.2299     3.6585    15.0086 </r>
       <r>     9.2851     2.8174    15.1643 </r>
       <r>     9.3404     2.0294    15.2765 </r>
       <r>     9.3957     1.6068    15.3653 </r>
       <r>     9.4510     1.5745    15.4524 </r>
       <r>     9.5062     1.7303    15.5480 </r>
       <r>     9.5615     1.8257    15.6489 </r>
       <r>     9.6168     1.7112    15.7435 </r>
       <r>     9.6721     1.3948    15.8206 </r>
       <r>     9.7273     1.0252    15.8773 </r>
       <r>     9.7826     0.8005    15.9215 </r>
       <r>     9.8379     0.8396    15.9679 </r>
       <r>     9.8932     1.1107    16.0293 </r>
       <r>     9.9484     1.4845    16.1114 </r>
       <r>    10.0037     1.8533    16.2138 </r>
       <r>    10.0590     2.1878    16.3347 </r>
       <r>    10.1143     2.4826    16.4720 </r>
       <r>    10.1695     2.6747    16.6198 </r>
       <r>    10.2248     2.6583    16.7668 </r>
       <r>    10.2801     2.4084    16.8999 </r>
       <r>    10.3353     2.0858    17.0152 </r>
       <r>    10.3906     1.9746    17.1243 </r>
       <r>    10.4459     2.2532    17.2489 </r>
       <r>    10.5012     2.7934    17.4033 </r>
       <r>    10.5564     3.2045    17.5804 </r>
       <r>    10.6117     3.1221    17.7530 </r>
       <r>    10.6670     2.4851    17.8903 </r>
       <r>    10.7223     1.5568    17.9764 </r>
       <r>    10.7775     0.7012    18.0151 </r>
       <r>    10.8328     0.1443    18.0231 </r>
       <r>    10.8881    -0.0983    18.0177 </r>
       <r>    10.9434    -0.1383    18.0100 </r>
       <r>    10.9986    -0.0984    18.0046 </r>
       <r>    11.0539    -0.0514    18.0018 </r>
       <r>    11.1092    -0.0215    18.0006 </r>
       <r>    11.1645    -0.0074    18.0002 </r>
       <r>    11.2197    -0.0022    18.0000 </r>
       <r>    11.2750    -0.0005    18.0000 </r>
       <r>    11.3303    -0.0001    18.0000 </r>
       <r>    11.3856     0.0000    18.0000 </r>
       <r>    11.4408     0.0000    18.0000 </r>
       <r>    11.4961     0.0000    18.0000 </r>
       <r>    11.5514     0.0000    18.0000 </r>
       <r>    11.6067     0.0000    18.0000 </r>
       <r>    11.6619     0.0000    18.0000 </r>
       <r>    11.7172     0.0000    18.0000 </r>
       <r>    11.7725     0.0000    18.0000 </r>
       <r>    11.8278     0.0000    18.0000 </r>
       <r>    11.8830     0.0000    18.0000 </r>
       <r>    11.9383     0.0000    18.0000 </r>
       <r>    11.9936     0.0000    18.0000 </r>
       <r>    12.0489     0.0000    18.0000 </r>
       <r>    12.1041     0.0000    18.0000 </r>
       <r>    12.1594     0.0000    18.0000 </r>
       <r>    12.2147     0.0000    18.0000 </r>
       <r>    12.2700     0.0000    18.0000 </r>
       <r>    12.3252     0.0000    18.0000 </r>
       <r>    12.3805     0.0000    18.0000 </r>
       <r>    12.4358     0.0000    18.0000 </r>
       <r>    12.4911     0.0000    18.0000 </r>
       <r>    12.5463     0.0000    18.0000 </r>
       <r>    12.6016     0.0000    18.0000 </r>
       <r>    12.6569     0.0000    18.0000 </r>
      </set>
     </set>
    </array>
   </total>
  </dos>
 </calculation>
 <structure name="finalpos" >
  <crystal>
   <varray name="basis" >
    <v>       3.31000000       0.00000000       0.00000000 </v>
    <v>       0.00000000       3.31000000       0.00000000 </v>
    <v>       0.00000000       0.00000000       3.31000000 </v>
   </varray>
   <i name="volume">     36.26469100 </i>
   <varray name="rec_basis" >
    <v>       0.30211480       0.00000000       0.00000000 </v>
    <v>       0.00000000       0.30211480       0.00000000 </v>
    <v>       0.00000000       0.00000000       0.30211480 </v>
   </varray>
  </crystal>
  <varray name="positions" >
   <v>       0.00000000       0.00000000       0.00000000 </v>
   <v>       0.50000000       0.50000000       0.50000000 </v>
  </varray>
 </structure>
</modeling>
