unknown system                          
   1.00000000000000     
     2.458975    0.000000    0.000000
    -1.229487    2.129535    0.000000
     0.000000    0.000000    6.720045
   C 
     4
Direct
  0.000000  0.000000  0.000000
  0.333333  0.666667  0.000000
  0.333333  0.666667  0.500000
  0.666667  0.333333  0.500000
 
   32   32   96
  48.632      50.704      55.989      62.144      66.540      67.483      64.836      59.747      53.756      47.983    
  42.916      38.796      35.588      33.130      31.318      30.171      29.773      30.171      31.318      33.130    
  35.588      38.796      42.916      47.983      53.756      59.747      64.836      67.483      66.540      62.144    
  55.989      50.704      50.704      50.703      53.925      58.781      62.905      64.322      62.331      57.598    
  51.515      45.355      39.786      35.104      31.413      28.599      26.518      25.102      24.371      24.370    
  25.101      26.518      28.600      31.413      35.104      39.788      45.357      51.515      57.596      62.330    
  64.322      62.905      58.782      53.926      55.989      54.824      55.989      58.782      61.485      62.304    
  60.284      55.673      49.572      43.202      37.334      32.271      28.191      25.049      22.703      21.041    
  20.028      19.685      20.028      21.041      22.703      25.049      28.191      32.271      37.334      43.202    
  49.572      55.673      60.284      62.304      61.485      58.782      62.144      61.298      61.299      62.145    
  62.905      62.303      59.489      54.509      48.186      41.587      35.474      30.147      25.773      22.359    
  19.780      17.903      16.657      16.028      16.028      16.657      17.903      19.780      22.360      25.773    
  30.146      35.473      41.586      48.187      54.509      59.490      62.304      62.905      66.540      67.424    
  67.622      67.424      66.540      64.322      60.284      54.509      47.677      40.697      34.269      28.677    
  24.046      20.396      17.609      15.543      14.101      13.240      12.952      13.240      14.101      15.543    
  17.609      20.396      24.046      28.677      34.269      40.697      47.677      54.509      60.284      64.322    
  67.483      70.836      72.441      72.442      70.837      67.484      62.331      55.673      48.186      40.696    
  33.846      27.910      22.986      19.085      16.087      13.839      12.222      11.166      10.642      10.642    
  11.166      12.222      13.838      16.086      19.085      22.986      27.910      33.846      40.697      48.187    
  55.673      62.330      64.836      70.519      74.107      75.328      74.107      70.520      64.836      57.596    
  49.572      41.586      34.269      27.910      22.625      18.420      15.172      12.719      10.923      9.6913    
  8.9693      8.7313      8.9693      9.6913      10.923      12.719      15.172      18.420      22.625      27.910    
  34.269      41.586      49.572      57.596      59.747      67.018      72.446      75.343      75.342      72.444    
  67.016      59.745      51.515      43.203      35.474      28.678      22.986      18.419      14.864      12.160    
  10.157      8.7421      7.8388      7.3991      7.3990      7.8388      8.7422      10.157      12.160      14.864    
  18.420      22.986      28.677      35.473      43.202      51.515      53.756      61.788      68.513      73.001    
  74.579      73.001      68.513      61.788      53.756      45.357      37.334      30.146      24.046      19.085    
  15.172      12.160      9.9033      8.2771      7.1865      6.5620      6.3590      6.5620      7.1865      8.2771    
  9.9033      12.160      15.172      19.085      24.046      30.146      37.334      45.357      47.983      56.246    
  63.739      69.487      72.620      72.621      69.490      63.742      56.248      47.983      39.786      32.270    
  25.773      20.397      16.087      12.719      10.157      8.2771      6.9735      6.1597      5.7707      5.7708    
  6.1597      6.9734      8.2771      10.157      12.719      16.086      20.396      25.773      32.271      39.788    
  42.916      51.174      59.134      65.851      70.369      71.966      70.369      65.851      59.134      51.174    
  42.916      35.104      28.191      22.360      17.609      13.838      10.923      8.7422      7.1865      6.1597    
  5.5810      5.3948      5.5810      6.1597      7.1865      8.7422      10.923      13.838      17.609      22.360    
  28.191      35.104      38.796      46.892      55.102      62.564      68.293      71.415      71.415      68.292    
  62.563      55.102      46.892      38.797      31.413      25.049      19.780      15.543      12.222      9.6914    
  7.8388      6.5619      5.7707      5.3948      5.3948      5.7708      6.5620      7.8388      9.6913      12.222    
  15.543      19.780      25.049      31.413      35.588      43.468      51.771      59.753      66.487      71.016    
  72.616      71.016      66.487      59.753      51.771      43.468      35.588      28.600      22.703      17.903    
  14.101      11.166      8.9693      7.3990      6.3590      5.7707      5.5810      5.7707      6.3590      7.3990    
  8.9693      11.166      14.101      17.903      22.703      28.600      33.130      40.746      49.007      57.325    
  64.845      70.591      73.712      73.711      70.590      64.844      57.325      49.008      40.747      33.130    
  26.518      21.040      16.657      13.240      10.642      8.7312      7.3990      6.5619      6.1597      6.1597    
  6.5620      7.3991      8.7313      10.642      13.240      16.657      21.041      26.518      31.318      38.591    
  46.676      55.092      63.062      69.656      74.012      75.534      74.012      69.656      63.062      55.092    
  46.676      38.591      31.318      25.101      20.028      16.028      12.952      10.642      8.9693      7.8388    
  7.1865      6.9735      7.1865      7.8388      8.9693      10.642      12.952      16.028      20.028      25.101    
  30.171      37.026      44.773      52.996      60.968      67.833      72.832      75.453      75.454      72.834    
  67.835      60.969      52.995      44.771      37.024      30.171      24.371      19.686      16.028      13.240    
  11.166      9.6914      8.7422      8.2771      8.2771      8.7421      9.6913      11.166      13.240      16.028    
  19.685      24.370      29.773      36.180      43.470      51.245      58.778      65.257      70.072      72.963    
  73.916      72.963      70.072      65.257      58.778      51.245      43.470      36.180      29.773      24.371    
  20.028      16.657      14.101      12.222      10.923      10.157      9.9033      10.157      10.923      12.222    
  14.101      16.657      20.028      24.371      30.171      36.179      42.999      50.220      57.055      62.650    
  66.496      68.636      69.507      69.506      68.634      66.494      62.650      57.055      50.221      43.001    
  36.180      30.171      25.101      21.040      17.903      15.543      13.838      12.719      12.160      12.160    
  12.719      13.839      15.543      17.903      21.041      25.102      31.318      37.024      43.470      50.221    
  56.395      60.997      63.468      64.059      63.708      63.443      63.708      64.059      63.468      60.997    
  56.395      50.221      43.470      37.024      31.318      26.518      22.703      19.780      17.609      16.087    
  15.172      14.864      15.172      16.087      17.609      19.780      22.703      26.518      33.130      38.592    
  44.773      51.246      57.055      60.996      62.283      61.134      58.828      57.076      57.077      58.829    
  61.135      62.283      60.997      57.055      51.245      44.771      38.591      33.130      28.600      25.049    
  22.360      20.397      19.085      18.419      18.420      19.085      20.396      22.359      25.049      28.599    
  35.588      40.747      46.676      52.995      58.778      62.650      63.468      61.135      56.929      53.031    
  51.460      53.031      56.929      61.135      63.468      62.650      58.778      52.995      46.676      40.747    
  35.588      31.413      28.191      25.773      24.046      22.986      22.625      22.986      24.046      25.773    
  28.191      31.413      38.796      43.468      49.007      55.091      60.968      65.258      66.496      64.059    
  58.828      53.031      49.269      49.269      53.031      58.829      64.059      66.494      65.257      60.969    
  55.092      49.008      43.468      38.797      35.104      32.270      30.146      28.678      27.910      27.910    
  28.677      30.147      32.271      35.104      42.916      46.892      51.771      57.325      63.062      67.835    
  70.072      68.634      63.708      57.077      51.460      49.269      51.460      57.077      63.708      68.634    
  70.072      67.835      63.062      57.325      51.771      46.892      42.916      39.786      37.334      35.474    
  34.269      33.846      34.269      35.474      37.334      39.786      47.983      51.176      55.102      59.753    
  64.845      69.656      72.832      72.961      69.507      63.446      57.077      53.031      53.031      57.076    
  63.443      69.506      72.963      72.834      69.656      64.844      59.753      55.102      51.174      47.983    
  45.357      43.203      41.586      40.696      40.697      41.587      43.202      45.355      53.756      56.248    
  59.134      62.563      66.487      70.590      74.012      75.454      73.916      69.507      63.708      58.828    
  56.929      58.828      63.708      69.507      73.916      75.454      74.012      70.590      66.487      62.563    
  59.134      56.248      53.756      51.515      49.572      48.186      47.677      48.186      49.572      51.515    
  59.747      61.787      63.739      65.851      68.293      71.016      73.712      75.536      75.454      72.961    
  68.634      64.059      61.135      61.134      64.059      68.636      72.963      75.453      75.534      73.711    
  71.016      68.292      65.851      63.742      61.788      59.745      57.596      55.673      54.509      54.509    
  55.673      57.598      64.836      67.016      68.513      69.490      70.369      71.415      72.616      73.712    
  74.012      72.832      70.072      66.496      63.468      62.283      63.468      66.496      70.072      72.832    
  74.012      73.712      72.616      71.415      70.369      69.490      68.513      67.016      64.836      62.331    
  60.284      59.489      60.284      62.331      67.483      70.519      72.446      73.003      72.620      71.963    
  71.415      71.016      70.590      69.656      67.835      65.258      62.650      60.996      60.997      62.650    
  65.257      67.833      69.656      70.591      71.016      71.415      71.966      72.621      73.001      72.444    
  70.520      67.484      64.322      62.303      62.304      64.322      66.540      70.837      74.107      75.342    
  74.579      72.620      70.369      68.293      66.487      64.845      63.062      60.968      58.778      57.055    
  56.395      57.055      58.778      60.968      63.062      64.845      66.487      68.293      70.369      72.620    
  74.579      75.342      74.107      70.837      66.540      62.905      61.485      62.905      62.144      67.425    
  72.441      75.326      75.342      73.003      69.490      65.851      62.563      59.753      57.325      55.091    
  52.995      51.246      50.221      50.220      51.245      52.996      55.092      57.325      59.753      62.564    
  65.851      69.487      73.001      75.343      75.328      72.442      67.424      62.145      58.782      58.781    
  55.989      61.299      67.622      72.441      74.107      72.446      68.513      63.739      59.134      55.102    
  51.771      49.007      46.676      44.773      43.470      42.999      43.470      44.773      46.676      49.007    
  51.771      55.102      59.134      63.739      68.513      72.446      74.107      72.441      67.622      61.299    
  55.989      53.925      50.704      54.825      61.299      67.425      70.837      70.519      67.016      61.787    
  56.248      51.176      46.892      43.468      40.747      38.592      37.024      36.179      36.180      37.026    
  38.591      40.746      43.468      46.892      51.174      56.246      61.788      67.018      70.519      70.836    
  67.424      61.298      54.824      50.703      49.317      51.277      56.260      62.018      66.041      66.727    
  63.975      58.903      52.993      47.314      42.333      38.287      35.135      32.719      30.939      29.812    
  29.422      29.812      30.939      32.719      35.135      38.286      42.333      47.314      52.993      58.902    
  63.975      66.727      66.041      62.017      56.260      51.277      51.277      51.275      54.300      58.827    
  62.593      63.726      61.583      56.829      50.810      44.743      39.263      34.660      31.031      28.262    
  26.212      24.817      24.098      24.097      24.816      26.212      28.262      31.030      34.660      39.265    
  44.745      50.810      56.827      61.582      63.726      62.593      58.828      54.302      56.260      55.179    
  56.260      58.828      61.244      61.805      59.626      54.974      48.920      42.637      36.858      31.875    
  27.861      24.767      22.455      20.816      19.818      19.480      19.818      20.816      22.455      24.767    
  27.861      31.875      36.858      42.637      48.920      54.974      59.626      61.805      61.244      58.828    
  62.018      61.288      61.289      62.018      62.592      61.804      58.867      53.853      47.574      41.059    
  35.035      29.785      25.480      22.118      19.574      17.723      16.492      15.872      15.872      16.493    
  17.722      19.574      22.118      25.480      29.785      35.033      41.058      47.574      53.853      58.867    
  61.805      62.593      66.041      67.013      67.245      67.013      66.041      63.726      59.626      53.853    
  47.080      40.190      33.853      28.341      23.779      20.182      17.432      15.393      13.969      13.119    
  12.834      13.118      13.969      15.394      17.432      20.182      23.779      28.341      33.853      40.189    
  47.080      53.853      59.626      63.725      66.727      70.098      71.722      71.722      70.099      66.728    
  61.583      54.974      47.573      40.189      33.439      27.587      22.734      18.889      15.930      13.710    
  12.112      11.069      10.551      10.551      11.069      12.112      13.710      15.929      18.888      22.734    
  27.587      33.439      40.190      47.575      54.974      61.582      63.975      69.597      73.153      74.364    
  73.153      69.597      63.975      56.827      48.920      41.058      33.853      27.587      22.378      18.232    
  15.027      12.604      10.829      9.6107      8.8968      8.6615      8.8968      9.6107      10.829      12.604    
  15.027      18.232      22.378      27.587      33.853      41.058      48.920      56.827      58.903      66.053    
  71.394      74.246      74.245      71.392      66.051      58.901      50.811      42.639      35.035      28.341    
  22.734      18.232      14.724      12.052      10.072      8.6721      7.7785      7.3435      7.3435      7.7784    
  8.6722      10.072      12.052      14.724      18.232      22.734      28.341      35.033      42.637      50.810    
  52.993      60.876      67.473      71.876      73.424      71.876      67.473      60.876      52.993      44.745    
  36.858      29.785      23.779      18.888      15.027      12.052      9.8208      8.2122      7.1332      6.5152    
  6.3143      6.5152      7.1332      8.2122      9.8208      12.052      15.027      18.888      23.779      29.785    
  36.858      44.745      47.314      55.421      62.767      68.399      71.467      71.468      68.401      62.769    
  55.422      47.313      39.263      31.874      25.480      20.182      15.930      12.604      10.072      8.2122    
  6.9225      6.1171      5.7321      5.7322      6.1171      6.9224      8.2122      10.072      12.604      15.930    
  20.182      25.480      31.875      39.264      42.333      50.435      58.239      64.821      69.246      70.809    
  69.246      64.821      58.239      50.435      42.333      34.660      27.861      22.118      17.432      13.710    
  10.829      8.6722      7.1332      6.1171      5.5444      5.3600      5.5444      6.1171      7.1332      8.6722    
  10.829      13.710      17.432      22.118      27.861      34.660      38.287      46.233      54.284      61.597    
  67.208      70.266      70.265      67.207      61.596      54.284      46.233      38.287      31.030      24.767    
  19.574      15.393      12.112      9.6108      7.7785      6.5152      5.7322      5.3600      5.3600      5.7322    
  6.5152      7.7784      9.6107      12.112      15.393      19.574      24.767      31.030      35.135      42.877    
  51.026      58.853      65.451      69.887      71.453      69.887      65.451      58.853      51.026      42.877    
  35.135      28.262      22.455      17.722      13.969      11.069      8.8968      7.3435      6.3143      5.7321    
  5.5444      5.7322      6.3143      7.3435      8.8968      11.069      13.969      17.722      22.455      28.262    
  32.719      40.208      48.324      56.487      63.862      69.495      72.554      72.553      69.494      63.861    
  56.487      48.325      40.210      32.720      26.212      20.816      16.492      13.118      10.551      8.6614    
  7.3434      6.5152      6.1171      6.1172      6.5152      7.3435      8.6615      10.551      13.119      16.493    
  20.816      26.212      30.939      38.098      46.045      54.314      62.143      68.620      72.901      74.398    
  72.901      68.620      62.143      54.314      46.045      38.098      30.939      24.816      19.818      15.872    
  12.834      10.551      8.8968      7.7785      7.1332      6.9225      7.1332      7.7785      8.8968      10.551    
  12.834      15.872      19.818      24.816      29.812      36.564      44.187      52.277      60.127      66.896    
  71.832      74.423      74.424      71.834      66.898      60.128      52.276      44.185      36.562      29.812    
  24.098      19.480      15.872      13.119      11.069      9.6108      8.6722      8.2123      8.2122      8.6721    
  9.6107      11.069      13.118      15.872      19.480      24.097      29.422      35.735      42.915      50.579    
  58.022      64.445      69.241      72.132      73.088      72.132      69.241      64.445      58.022      50.579    
  42.915      35.736      29.422      24.098      19.818      16.492      13.969      12.112      10.829      10.072    
  9.8208      10.072      10.829      12.112      13.969      16.492      19.818      24.098      29.812      35.734    
  42.456      49.586      56.365      61.960      65.853      68.061      68.980      68.979      68.059      65.852    
  61.959      56.366      49.587      42.458      35.735      29.812      24.816      20.816      17.722      15.393    
  13.710      12.604      12.052      12.052      12.604      13.710      15.394      17.723      20.816      24.817    
  30.939      36.562      42.915      49.587      55.731      60.381      62.975      63.726      63.508      63.295    
  63.508      63.726      62.975      60.381      55.731      49.587      42.915      36.562      30.939      26.212    
  22.455      19.574      17.432      15.930      15.027      14.724      15.027      15.930      17.432      19.574    
  22.455      26.212      32.719      38.098      44.187      50.580      56.365      60.380      61.847      60.947    
  58.880      57.275      57.275      58.881      60.947      61.848      60.381      56.365      50.579      44.185    
  38.098      32.719      28.262      24.768      22.118      20.182      18.888      18.232      18.232      18.888    
  20.182      22.118      24.767      28.262      35.135      40.210      46.045      52.276      58.022      61.959    
  62.975      60.947      57.075      53.436      51.962      53.436      57.075      60.948      62.975      61.959    
  58.022      52.277      46.045      40.209      35.135      31.031      27.861      25.480      23.779      22.734    
  22.378      22.734      23.779      25.480      27.861      31.030      38.286      42.876      48.324      54.312    
  60.128      64.447      65.853      63.725      58.880      53.436      49.884      49.884      53.436      58.882    
  63.726      65.851      64.445      60.128      54.314      48.325      42.877      38.287      34.660      31.873    
  29.785      28.341      27.587      27.586      28.341      29.786      31.875      34.659      42.333      46.233    
  51.026      56.487      62.143      66.898      69.241      68.059      63.508      57.275      51.962      49.884    
  51.962      57.275      63.508      68.059      69.241      66.898      62.143      56.487      51.026      46.233    
  42.333      39.263      36.858      35.035      33.853      33.439      33.853      35.035      36.858      39.263    
  47.314      50.437      54.284      58.853      63.861      68.620      71.832      72.130      68.981      63.297    
  57.275      53.436      53.436      57.274      63.295      68.979      72.132      71.834      68.620      63.861    
  58.853      54.284      50.435      47.313      44.745      42.639      41.058      40.189      40.189      41.058    
  42.637      44.744      52.993      55.422      58.239      61.596      65.451      69.494      72.901      74.424    
  73.088      68.980      63.508      58.880      57.075      58.880      63.508      68.981      73.088      74.423    
  72.901      69.494      65.451      61.595      58.239      55.423      52.993      50.810      48.920      47.574    
  47.080      47.573      48.920      50.811      58.902      60.874      62.767      64.821      67.209      69.887    
  72.554      74.399      74.423      72.130      68.059      63.726      60.948      60.947      63.726      68.062    
  72.132      74.422      74.398      72.554      69.887      67.207      64.821      62.769      60.876      58.901    
  56.827      54.974      53.853      53.852      54.974      56.829      63.975      66.051      67.473      68.401    
  69.246      70.265      71.453      72.554      72.901      71.832      69.241      65.853      62.975      61.847    
  62.975      65.853      69.241      71.832      72.901      72.554      71.453      70.265      69.246      68.401    
  67.473      66.051      63.975      61.583      59.626      58.867      59.626      61.583      66.727      69.597    
  71.394      71.878      71.466      70.806      70.265      69.887      69.494      68.621      66.898      64.446    
  61.959      60.381      60.381      61.959      64.445      66.896      68.620      69.495      69.887      70.266    
  70.809      71.468      71.876      71.392      69.597      66.728      63.725      61.804      61.805      63.726    
  66.041      70.099      73.153      74.245      73.424      71.467      69.246      67.208      65.451      63.862    
  62.143      60.127      58.022      56.365      55.731      56.365      58.022      60.128      62.143      63.861    
  65.451      67.209      69.246      71.466      73.424      74.246      73.153      70.099      66.041      62.593    
  61.244      62.592      62.017      67.013      71.722      74.362      74.246      71.878      68.401      64.820    
  61.595      58.853      56.487      54.312      52.277      50.580      49.587      49.585      50.579      52.278    
  54.314      56.487      58.853      61.597      64.821      68.398      71.876      74.247      74.364      71.722    
  67.013      62.019      58.828      58.827      56.260      61.289      67.246      71.722      73.153      71.394    
  67.473      62.767      58.239      54.284      51.026      48.324      46.045      44.187      42.915      42.456    
  42.915      44.187      46.045      48.324      51.026      54.284      58.239      62.767      67.473      71.394    
  73.153      71.722      67.245      61.289      56.260      54.300      51.277      55.181      61.289      67.013    
  70.099      69.596      66.051      60.874      55.423      50.437      46.233      42.877      40.209      38.098    
  36.562      35.735      35.736      36.563      38.098      40.209      42.877      46.233      50.435      55.422    
  60.876      66.053      69.597      70.098      67.013      61.288      55.179      51.276      50.992      52.639    
  56.789      61.458      64.466      64.468      61.451      56.450      50.784      45.374      40.643      36.810    
  33.820      31.525      29.834      28.767      28.397      28.766      29.834      31.525      33.820      36.809    
  40.643      45.375      50.784      56.449      61.451      64.469      64.466      61.457      56.789      52.640    
  52.639      52.638      55.119      58.741      61.533      61.904      59.370      54.585      48.763      42.968    
  37.744      33.370      29.920      27.279      25.321      23.988      23.301      23.300      23.987      25.321    
  27.280      29.918      33.370      37.746      42.970      48.763      54.583      59.370      61.904      61.532    
  58.741      55.121      56.789      55.941      56.788      58.741      60.378      60.252      57.662      52.922    
  47.021      40.997      35.473      30.723      26.900      23.947      21.733      20.161      19.203      18.879    
  19.203      20.161      21.733      23.947      26.900      30.723      35.473      40.997      47.021      52.922    
  57.662      60.252      60.378      58.741      61.458      61.043      61.043      61.458      61.531      60.251    
  56.999      51.920      45.786      39.522      33.754      28.734      24.625      21.412      18.974      17.194    
  16.011      15.415      15.415      16.011      17.194      18.974      21.413      24.625      28.733      33.753    
  39.521      45.786      51.920      57.000      60.252      61.532      64.466      65.668      65.993      65.668    
  64.466      61.904      57.662      51.920      45.333      38.711      32.642      27.360      22.998      19.555    
  16.917      14.955      13.583      12.763      12.489      12.763      13.583      14.955      16.917      19.555    
  22.998      27.360      32.642      38.711      45.333      51.920      57.662      61.903      64.468      67.871    
  69.536      69.536      67.872      64.470      59.370      52.922      45.785      38.710      32.252      26.644    
  21.999      18.314      15.471      13.333      11.791      10.784      10.284      10.284      10.784      11.791    
  13.333      15.471      18.313      21.999      26.644      32.253      38.711      45.787      52.922      59.369    
  61.451      66.884      70.340      71.521      70.340      66.884      61.451      54.583      47.021      39.521    
  32.642      26.644      21.659      17.684      14.603      12.267      10.552      9.3735      8.6835      8.4560    
  8.6835      9.3735      10.552      12.267      14.603      17.684      21.659      26.644      32.642      39.521    
  47.021      54.583      56.450      63.249      68.335      71.054      71.053      68.332      63.247      56.449    
  48.764      40.999      33.754      27.360      21.998      17.683      14.311      11.735      9.8205      8.4658    
  7.6007      7.1797      7.1797      7.6006      8.4659      9.8205      11.735      14.311      17.684      21.999    
  27.360      33.753      40.997      48.763      50.784      58.236      64.467      68.624      70.086      68.624    
  64.467      58.236      50.784      42.970      35.473      28.733      22.998      18.313      14.603      11.735    
  9.5783      8.0212      6.9759      6.3771      6.1825      6.3771      6.9759      8.0212      9.5783      11.735    
  14.603      18.313      22.998      28.733      35.473      42.970      45.374      53.038      59.961      65.261    
  68.146      68.147      65.263      59.963      53.038      45.374      37.744      30.722      24.626      19.556    
  15.471      12.266      9.8203      8.0212      6.7719      5.9913      5.6180      5.6181      5.9914      6.7718    
  8.0212      9.8205      12.267      15.471      19.555      24.626      30.723      37.745      40.643      48.300    
  55.658      61.852      66.010      67.478      66.010      61.852      55.658      48.300      40.643      33.370    
  26.900      21.413      16.917      13.333      10.552      8.4659      6.9759      5.9914      5.4360      5.2571    
  5.4360      5.9914      6.9759      8.4659      10.552      13.333      16.917      21.413      26.900      33.370    
  36.810      44.329      51.925      58.809      64.084      66.956      66.956      64.084      58.809      51.925    
  44.329      36.810      29.919      23.947      18.974      14.955      11.791      9.3736      7.6007      6.3771    
  5.6181      5.2571      5.2571      5.6181      6.3771      7.6006      9.3735      11.791      14.955      18.974    
  23.947      29.919      33.820      41.163      48.871      56.256      62.466      66.635      68.107      66.635    
  62.466      56.256      48.871      41.163      33.820      27.280      21.733      17.194      13.583      10.784    