unknown system                          
   1.00000000000000     
     2.458975    0.000000    0.000000
    -1.229487    2.129535    0.000000
     0.000000    0.000000    6.720045
   C 
     4
Direct
  0.000000  0.000000  0.000000
  0.333333  0.666667  0.000000
  0.333333  0.666667  0.500000
  0.666667  0.333333  0.500000
 
   32   32   96
 0.48684657077E+02 0.50756430914E+02 0.56043374049E+02 0.62207092979E+02 0.66621626782E+02
 0.67587560071E+02 0.64962179465E+02 0.59885181806E+02 0.53897559400E+02 0.48123106793E+02
 0.43049801003E+02 0.38920589430E+02 0.35703098446E+02 0.33236410143E+02 0.31418098310E+02
 0.30266933777E+02 0.29867934313E+02 0.30266931653E+02 0.31418097193E+02 0.33236413663E+02
 0.35703107588E+02 0.38920601406E+02 0.43049811000E+02 0.48123111176E+02 0.53897557903E+02
 0.59885177181E+02 0.64962175176E+02 0.67587557996E+02 0.66621626606E+02 0.62207093334E+02
 0.56043374042E+02 0.50756430667E+02 0.50756430667E+02 0.50755368879E+02 0.53977622217E+02
 0.58839732049E+02 0.62976719100E+02 0.64413617254E+02 0.62442615410E+02 0.57723078055E+02
 0.51645672098E+02 0.45483847282E+02 0.39910044902E+02 0.35219619665E+02 0.31519517345E+02
 0.28697402006E+02 0.26609507913E+02 0.25188799588E+02 0.24455485877E+02 0.24454728058E+02
 0.25187853057E+02 0.26609761076E+02 0.28697723016E+02 0.31518872793E+02 0.35219600556E+02
 0.39911946903E+02 0.45485706794E+02 0.51645127527E+02 0.57721021686E+02 0.62441312170E+02
 0.64413328617E+02 0.62976744887E+02 0.58840576121E+02 0.53979467183E+02 0.56043374042E+02
 0.54877173244E+02 0.56043364382E+02 0.58840560875E+02 0.61553672926E+02 0.62387767239E+02
 0.60385173690E+02 0.55787947770E+02 0.49692171139E+02 0.43321042005E+02 0.37448783735E+02
 0.32378115256E+02 0.28288718579E+02 0.25138038752E+02 0.22785284292E+02 0.21118356756E+02
 0.20102642373E+02 0.19758412040E+02 0.20102645481E+02 0.21118361289E+02 0.22785287894E+02
 0.25138039642E+02 0.28288716176E+02 0.32378109974E+02 0.37448776448E+02 0.43321033889E+02
 0.49692163979E+02 0.55787944114E+02 0.60385176135E+02 0.62387776853E+02 0.61553687803E+02
 0.58840576121E+02 0.62207093334E+02 0.61357850432E+02 0.61358441274E+02 0.62207973373E+02
 0.62976721855E+02 0.62387069545E+02 0.59587585854E+02 0.54618308620E+02 0.48300563725E+02
 0.41699583445E+02 0.35581667474E+02 0.30246841157E+02 0.25863875645E+02 0.22441152922E+02
 0.19853972795E+02 0.17971718658E+02 0.16721467094E+02 0.16090873574E+02 0.16091204078E+02
 0.16721835050E+02 0.17971587508E+02 0.19854090461E+02 0.22441940499E+02 0.25864120265E+02
 0.30245586207E+02 0.35580037856E+02 0.41699163083E+02 0.48301220051E+02 0.54619060247E+02
 0.59588287232E+02 0.62387776853E+02 0.62976744887E+02 0.66621626606E+02 0.67499849194E+02
 0.67695281555E+02 0.67499851812E+02 0.66621631634E+02 0.64413334972E+02 0.60385181517E+02
 0.54619062033E+02 0.47789303032E+02 0.40806087136E+02 0.34371580201E+02 0.28772080830E+02
 0.24131779926E+02 0.20472185762E+02 0.17676557928E+02 0.15604789396E+02 0.14158304511E+02
 0.13294027349E+02 0.13005274528E+02 0.13294029085E+02 0.14158305329E+02 0.15604786381E+02
 0.17676550673E+02 0.20472177174E+02 0.24131774343E+02 0.28772080918E+02 0.34371585060E+02
 0.40806093011E+02 0.47789305945E+02 0.54619060247E+02 0.60385176135E+02 0.64413328617E+02
 0.67587557996E+02 0.70935032204E+02 0.72536852600E+02 0.72537060230E+02 0.70935893612E+02
 0.67589085520E+02 0.62442626665E+02 0.55788172706E+02 0.48300559932E+02 0.40805288021E+02
 0.33946908477E+02 0.28002155291E+02 0.23067966473E+02 0.19157147672E+02 0.16149841831E+02
 0.13894810196E+02 0.12272590825E+02 0.11213464624E+02 0.10687861821E+02 0.10687824391E+02
 0.11213453634E+02 0.12272600142E+02 0.13894557979E+02 0.16149329456E+02 0.19156895489E+02
 0.23068304863E+02 0.28002810029E+02 0.33947606951E+02 0.40806093011E+02 0.48301220051E+02
 0.55787944114E+02 0.62441312170E+02 0.64962175176E+02 0.70643508649E+02 0.74228691940E+02
 0.75448503161E+02 0.74228700598E+02 0.70643522250E+02 0.64962188158E+02 0.57721029292E+02
 0.49692164197E+02 0.41699156988E+02 0.34371575643E+02 0.28002800462E+02 0.22705798477E+02
 0.18489649820E+02 0.15232024422E+02 0.12771536263E+02 0.10969929067E+02 0.97336444046E+01
 0.90091090415E+01 0.87701809732E+01 0.90091090839E+01 0.97336446115E+01 0.10969929688E+02
 0.12771537719E+02 0.15232027343E+02 0.18489654922E+02 0.22705806129E+02 0.28002810029E+02
 0.34371585060E+02 0.41699163083E+02 0.49692163979E+02 0.57721021686E+02 0.59885177181E+02
 0.67161425742E+02 0.72591331443E+02 0.75489051385E+02 0.75488167585E+02 0.72589015645E+02
 0.67158762806E+02 0.59883690429E+02 0.51645663186E+02 0.43322902125E+02 0.35581662283E+02
 0.28772545019E+02 0.23067968772E+02 0.18489312597E+02 0.14923933059E+02 0.12211004283E+02
 0.10201106795E+02 0.87811481811E+01 0.78744860998E+01 0.74330527212E+01 0.74329897007E+01
 0.78744238648E+01 0.87812477206E+01 0.10201280506E+02 0.12211082373E+02 0.14924025988E+02
 0.18489654922E+02 0.23068304863E+02 0.28772080918E+02 0.35580037856E+02 0.43321033889E+02
 0.51645127527E+02 0.53897557903E+02 0.61941377004E+02 0.68673347310E+02 0.73166183176E+02
 0.74745756643E+02 0.73166176829E+02 0.68673336603E+02 0.61941365588E+02 0.53897550101E+02
 0.45485705851E+02 0.37448782755E+02 0.30245596739E+02 0.24131784075E+02 0.19156900226E+02
 0.15232026164E+02 0.12211077949E+02 0.99464141338E+01 0.83143658482E+01 0.72196807313E+01
 0.65926353191E+01 0.63888056888E+01 0.65926325993E+01 0.72196779059E+01 0.83143658817E+01
 0.99464176599E+01 0.12211082373E+02 0.15232027343E+02 0.19156895489E+02 0.24131774343E+02
 0.30245586207E+02 0.37448776448E+02 0.45485706794E+02 0.48123111176E+02 0.56401143970E+02
 0.63906129288E+02 0.69663079946E+02 0.72800012274E+02 0.72801031023E+02 0.69665574498E+02
 0.63908693523E+02 0.56402314582E+02 0.48122341528E+02 0.39910050277E+02 0.32376598745E+02
 0.25863880766E+02 0.20472805871E+02 0.16149842925E+02 0.12771528685E+02 0.10201108094E+02
 0.83143902330E+01 0.70058458001E+01 0.61887157181E+01 0.57980756984E+01 0.57981096399E+01
 0.61887084636E+01 0.70057285797E+01 0.83143658817E+01 0.10201280506E+02 0.12771537719E+02
 0.16149329456E+02 0.20472177174E+02 0.25864120265E+02 0.32378109974E+02 0.39911946903E+02
 0.43049811000E+02 0.51324933981E+02 0.59300842600E+02 0.66029820924E+02 0.70555617089E+02
 0.72154571534E+02 0.70555611211E+02 0.66029811541E+02 0.59300833411E+02 0.51324928403E+02
 0.43049810771E+02 0.35219605175E+02 0.28288723406E+02 0.22441947592E+02 0.17676555668E+02
 0.13894560401E+02 0.10969930364E+02 0.87812479444E+01 0.72196785320E+01 0.61887094843E+01
 0.56075279973E+01 0.54204839556E+01 0.56075272000E+01 0.61887084636E+01 0.72196779059E+01
 0.87812477206E+01 0.10969929688E+02 0.13894557979E+02 0.17676550673E+02 0.22441940499E+02
 0.28288716176E+02 0.35219600556E+02 0.38920601406E+02 0.47034943187E+02 0.55262079430E+02
 0.62738054266E+02 0.68476899630E+02 0.71604400995E+02 0.71603874953E+02 0.68475683870E+02
 0.62736902386E+02 0.55261544916E+02 0.47035125949E+02 0.38921240360E+02 0.31519520369E+02
 0.25138313809E+02 0.19853966529E+02 0.15604585378E+02 0.12272590736E+02 0.97337665354E+01
 0.78744840158E+01 0.65925996663E+01 0.57980739322E+01 0.54204766415E+01 0.54204839556E+01
 0.57981096399E+01 0.65926325993E+01 0.78744238648E+01 0.97336446115E+01 0.12272600142E+02
 0.15604786381E+02 0.19854090461E+02 0.25138039642E+02 0.31518872793E+02 0.35703107588E+02
 0.43600754250E+02 0.51919446201E+02 0.59915939312E+02 0.66660794749E+02 0.71197108842E+02
 0.72799475197E+02 0.71197119047E+02 0.66660810838E+02 0.59915954620E+02 0.51919454713E+02
 0.43600753172E+02 0.35703098279E+02 0.28697709912E+02 0.22785276084E+02 0.17971580292E+02
 0.14158303028E+02 0.11213454141E+02 0.90091096454E+01 0.74329887340E+01 0.63888035287E+01
 0.57980739322E+01 0.56075279973E+01 0.57980756984E+01 0.63888056888E+01 0.74329897007E+01
 0.90091090839E+01 0.11213453634E+02 0.14158305329E+02 0.17971587508E+02 0.22785287894E+02
 0.28697723016E+02 0.33236413663E+02 0.40867479703E+02 0.49143438857E+02 0.57474658494E+02
 0.65004907921E+02 0.70758057934E+02 0.73882175621E+02 0.73881881305E+02 0.70757307208E+02
 0.65004150528E+02 0.57474513267E+02 0.49144131164E+02 0.40868482268E+02 0.33236917681E+02
 0.26609500975E+02 0.21117778441E+02 0.16721466090E+02 0.13293976661E+02 0.10687865614E+02
 0.87701558345E+01 0.74329887340E+01 0.65925996663E+01 0.61887094843E+01 0.61887157181E+01
 0.65926353191E+01 0.74330527212E+01 0.87701809732E+01 0.10687824391E+02 0.13294029085E+02
 0.16721835050E+02 0.21118361289E+02 0.26609761076E+02 0.31418097193E+02 0.38704299490E+02
 0.46800927762E+02 0.55228384536E+02 0.63206420175E+02 0.69804771747E+02 0.74163084861E+02
 0.75686178137E+02 0.74163085006E+02 0.69804773113E+02 0.63206423564E+02 0.55228389144E+02
 0.46800931314E+02 0.38704299945E+02 0.31418094595E+02 0.25187849806E+02 0.20102644603E+02
 0.16091206830E+02 0.13005279359E+02 0.10687865614E+02 0.90091096454E+01 0.78744840158E+01
 0.72196785320E+01 0.70058458001E+01 0.72196807313E+01 0.78744860998E+01 0.90091090415E+01
 0.10687861821E+02 0.13005274528E+02 0.16091204078E+02 0.20102645481E+02 0.25187853057E+02
 0.30266931653E+02 0.37132285297E+02 0.44889676263E+02 0.53120583941E+02 0.61096981018E+02
 0.67962460068E+02 0.72960531464E+02 0.75580472438E+02 0.75581429742E+02 0.72962735206E+02
 0.67964451813E+02 0.61097587268E+02 0.53119598640E+02 0.44887861986E+02 0.37130851157E+02
 0.30266693725E+02 0.24455493034E+02 0.19759275546E+02 0.16091206830E+02 0.13293976661E+02
 0.11213454141E+02 0.97337665354E+01 0.87812479444E+01 0.83143902330E+01 0.83143658482E+01
 0.87811481811E+01 0.97336444046E+01 0.11213464624E+02 0.13294027349E+02 0.16090873574E+02
 0.19758412040E+02 0.24454728058E+02 0.29867934313E+02 0.36283418265E+02 0.43580933515E+02
 0.51360172148E+02 0.58893831494E+02 0.65368619521E+02 0.70179128919E+02 0.73065695663E+02
 0.74017559250E+02 0.73065685616E+02 0.70179112619E+02 0.65368603021E+02 0.58893820651E+02
 0.51360170261E+02 0.43580940106E+02 0.36283429605E+02 0.29867945436E+02 0.24455493034E+02
 0.20102644603E+02 0.16721466090E+02 0.14158303028E+02 0.12272590736E+02 0.10969930364E+02
 0.10201108094E+02 0.99464141338E+01 0.10201106795E+02 0.10969929067E+02 0.12272590825E+02
 0.14158304511E+02 0.16721467094E+02 0.20102642373E+02 0.24455485877E+02 0.30266933777E+02
 0.36282284119E+02 0.43108418085E+02 0.50330517172E+02 0.57161845797E+02 0.62749374254E+02
 0.66585380503E+02 0.68718219455E+02 0.69585215352E+02 0.69584106253E+02 0.68715895812E+02
 0.66583552736E+02 0.62748688840E+02 0.57162143158E+02 0.50331742574E+02 0.43110185108E+02
 0.36283429605E+02 0.30266693725E+02 0.25187849806E+02 0.21117778441E+02 0.17971580292E+02
 0.15604585378E+02 0.13894560401E+02 0.12771528685E+02 0.12211077949E+02 0.12211004283E+02
 0.12771536263E+02 0.13894810196E+02 0.15604789396E+02 0.17971718658E+02 0.21118356756E+02
 0.25188799588E+02 0.31418098310E+02 0.37130852158E+02 0.43580940420E+02 0.50331743647E+02
 0.56499476244E+02 0.61089619494E+02 0.63547385725E+02 0.64128215211E+02 0.63771242526E+02
 0.63505232062E+02 0.63771245736E+02 0.64128219437E+02 0.63547388377E+02 0.61089619590E+02
 0.56499474880E+02 0.50331742574E+02 0.43580940106E+02 0.37130851157E+02 0.31418094595E+02
 0.26609500975E+02 0.22785276084E+02 0.19853966529E+02 0.17676555668E+02 0.16149842925E+02
 0.15232026164E+02 0.14923933059E+02 0.15232024422E+02 0.16149841831E+02 0.17676557928E+02
 0.19853972795E+02 0.22785284292E+02 0.26609507913E+02 0.33236410143E+02 0.38704786189E+02
 0.44889687096E+02 0.51361576835E+02 0.57161840418E+02 0.61088686402E+02 0.62358868111E+02
 0.61197690170E+02 0.58884855280E+02 0.57130747262E+02 0.57131511832E+02 0.58886079845E+02
 0.61198147004E+02 0.62359217340E+02 0.61089619590E+02 0.57162143158E+02 0.51360170261E+02
 0.44887861986E+02 0.38704299945E+02 0.33236917681E+02 0.28697709912E+02 0.25138313809E+02
 0.22441947592E+02 0.20472805871E+02 0.19156900226E+02 0.18489312597E+02 0.18489649820E+02
 0.19157147672E+02 0.20472185762E+02 0.22441152922E+02 0.25138038752E+02 0.28697402006E+02
 0.35703098446E+02 0.40868486257E+02 0.46800938305E+02 0.53119606070E+02 0.58893824811E+02
 0.62748686411E+02 0.63547378293E+02 0.61198131575E+02 0.56983824494E+02 0.53084183507E+02
 0.51513479165E+02 0.53084193269E+02 0.56983840071E+02 0.61198147004E+02 0.63547388377E+02
 0.62748688840E+02 0.58893820651E+02 0.53119598640E+02 0.46800931314E+02 0.40868482268E+02
 0.35703098279E+02 0.31519520369E+02 0.28288723406E+02 0.25863880766E+02 0.24131784075E+02
 0.23067968772E+02 0.22705798477E+02 0.23067966473E+02 0.24131779926E+02 0.25863875645E+02
 0.28288718579E+02 0.31519517345E+02 0.38920589430E+02 0.43600572935E+02 0.49143445841E+02
 0.55226706497E+02 0.61096978347E+02 0.65370324557E+02 0.66585368452E+02 0.64127902546E+02
 0.58884863198E+02 0.53084040617E+02 0.49323035219E+02 0.49322738591E+02 0.53084193269E+02
 0.58886079845E+02 0.64128219437E+02 0.66583552736E+02 0.65368603021E+02 0.61097587268E+02
 0.55228389144E+02 0.49144131164E+02 0.43600753172E+02 0.38921240360E+02 0.35219605175E+02
 0.32376598745E+02 0.30245596739E+02 0.28772545019E+02 0.28002800462E+02 0.28002155291E+02
 0.28772080830E+02 0.30246841157E+02 0.32378115256E+02 0.35219619665E+02 0.43049801003E+02
 0.47035116155E+02 0.51919448467E+02 0.57474511333E+02 0.63206424455E+02 0.67964454017E+02
 0.70179116202E+02 0.68715901920E+02 0.63771254583E+02 0.57131521264E+02 0.51513485376E+02
 0.49323035219E+02 0.51513479165E+02 0.57131511832E+02 0.63771245736E+02 0.68715895812E+02
 0.70179112619E+02 0.67964451813E+02 0.63206423564E+02 0.57474513267E+02 0.51919454713E+02
 0.47035125949E+02 0.43049810771E+02 0.39910050277E+02 0.37448782755E+02 0.35581662283E+02
 0.34371575643E+02 0.33946908477E+02 0.34371580201E+02 0.35581667474E+02 0.37448783735E+02
 0.39910044902E+02 0.48123106793E+02 0.51326797452E+02 0.55262077567E+02 0.59915967386E+02
 0.65004917860E+02 0.69804655363E+02 0.72960521151E+02 0.73063922055E+02 0.69585226051E+02
 0.63507490547E+02 0.57131521264E+02 0.53084040617E+02 0.53084183507E+02 0.57130747262E+02
 0.63505232062E+02 0.69584106253E+02 0.73065685616E+02 0.72962735206E+02 0.69804773113E+02
 0.65004150528E+02 0.59915954620E+02 0.55261544916E+02 0.51324928403E+02 0.48122341528E+02
 0.45485705851E+02 0.43322902125E+02 0.41699156988E+02 0.40805288021E+02 0.40806087136E+02
 0.41699583445E+02 0.43321042005E+02 0.45483847282E+02 0.53897559400E+02 0.56402322403E+02
 0.59300837861E+02 0.62736902116E+02 0.66660805866E+02 0.70757299510E+02 0.74163078234E+02
 0.75581427799E+02 0.74017564232E+02 0.69585226051E+02 0.63771254583E+02 0.58884863198E+02
 0.56983824494E+02 0.58884855280E+02 0.63771242526E+02 0.69585215352E+02 0.74017559250E+02
 0.75581429742E+02 0.74163085006E+02 0.70757307208E+02 0.66660810838E+02 0.62736902386E+02
 0.59300833411E+02 0.56402314582E+02 0.53897550101E+02 0.51645663186E+02 0.49692164197E+02
 0.48300559932E+02 0.47789303032E+02 0.48300563725E+02 0.49692171139E+02 0.51645672098E+02
 0.59885181806E+02 0.61939614085E+02 0.63906122967E+02 0.66029710371E+02 0.68476907180E+02
 0.71197344936E+02 0.73882172756E+02 0.75687885721E+02 0.75581427799E+02 0.73063922055E+02
 0.68715901920E+02 0.64127902546E+02 0.61198131575E+02 0.61197690170E+02 0.64128215211E+02
 0.68718219455E+02 0.73065695663E+02 0.75580472438E+02 0.75686178137E+02 0.73881881305E+02
 0.71197119047E+02 0.68475683870E+02 0.66029811541E+02 0.63908693523E+02 0.61941365588E+02
 0.59883690429E+02 0.57721029292E+02 0.55788172706E+02 0.54619062033E+02 0.54618308620E+02
 0.55787947770E+02 0.57723078055E+02 0.64962179465E+02 0.67158760658E+02 0.68673341039E+02
 0.69665582385E+02 0.70555618680E+02 0.71603879486E+02 0.72799476021E+02 0.73882172756E+02
 0.74163078234E+02 0.72960521151E+02 0.70179116202E+02 0.66585368452E+02 0.63547378293E+02
 0.62358868111E+02 0.63547385725E+02 0.66585380503E+02 0.70179128919E+02 0.72960531464E+02
 0.74163084861E+02 0.73882175621E+02 0.72799475197E+02 0.71603874953E+02 0.70555611211E+02
 0.69665574498E+02 0.68673336603E+02 0.67158762806E+02 0.64962188158E+02 0.62442626665E+02
 0.60385181517E+02 0.59587585854E+02 0.60385173690E+02 0.62442615410E+02 0.67587560071E+02
 0.70642911571E+02 0.72591327681E+02 0.73168382558E+02 0.72800008525E+02 0.72152290503E+02
 0.71603879486E+02 0.71197344936E+02 0.70757299510E+02 0.69804655363E+02 0.67964454017E+02
 0.65370324557E+02 0.62748686411E+02 0.61088686402E+02 0.61089619494E+02 0.62749374254E+02
 0.65368619521E+02 0.67962460068E+02 0.69804771747E+02 0.70758057934E+02 0.71197108842E+02
 0.71604400995E+02 0.72154571534E+02 0.72801031023E+02 0.73166176829E+02 0.72589015645E+02
 0.70643522250E+02 0.67589085520E+02 0.64413334972E+02 0.62387069545E+02 0.62387767239E+02
 0.64413617254E+02 0.66621626782E+02 0.70935887431E+02 0.74228693544E+02 0.75488160092E+02
 0.74745749902E+02 0.72800008525E+02 0.70555618680E+02 0.68476907180E+02 0.66660805866E+02
 0.65004917860E+02 0.63206424455E+02 0.61096978347E+02 0.58893824811E+02 0.57161840418E+02
 0.56499476244E+02 0.57161845797E+02 0.58893831494E+02 0.61096981018E+02 0.63206420175E+02
 0.65004907921E+02 0.66660794749E+02 0.68476899630E+02 0.70555617089E+02 0.72800012274E+02
 0.74745756643E+02 0.75488167585E+02 0.74228700598E+02 0.70935893612E+02 0.66621631634E+02
 0.62976721855E+02 0.61553672926E+02 0.62976719100E+02 0.62207092979E+02 0.67500285133E+02
 0.72536861191E+02 0.75446536119E+02 0.75488160092E+02 0.73168382558E+02 0.69665582385E+02
 0.66029710371E+02 0.62736902116E+02 0.59915967386E+02 0.57474511333E+02 0.55226706497E+02
 0.53119606070E+02 0.51361576835E+02 0.50331743647E+02 0.50330517172E+02 0.51360172148E+02
 0.53120583941E+02 0.55228384536E+02 0.57474658494E+02 0.59915939312E+02 0.62738054266E+02
 0.66029820924E+02 0.69663079946E+02 0.73166183176E+02 0.75489051385E+02 0.75448503161E+02
 0.72537060230E+02 0.67499851812E+02 0.62207973373E+02 0.58840560875E+02 0.58839732049E+02
 0.56043374049E+02 0.61358456280E+02 0.67695295730E+02 0.72536861191E+02 0.74228693544E+02
 0.72591327681E+02 0.68673341039E+02 0.63906122967E+02 0.59300837861E+02 0.55262077567E+02
 0.51919448467E+02 0.49143445841E+02 0.46800938305E+02 0.44889687096E+02 0.43580940420E+02
 0.43108418085E+02 0.43580933515E+02 0.44889676263E+02 0.46800927762E+02 0.49143438857E+02
 0.51919446201E+02 0.55262079430E+02 0.59300842600E+02 0.63906129288E+02 0.68673347310E+02
 0.72591331443E+02 0.74228691940E+02 0.72536852600E+02 0.67695281555E+02 0.61358441274E+02
 0.56043364382E+02 0.53977622217E+02 0.50756430914E+02 0.54878845435E+02 0.61358456280E+02
 0.67500285133E+02 0.70935887431E+02 0.70642911571E+02 0.67158760658E+02 0.61939614085E+02
 0.56402322403E+02 0.51326797452E+02 0.47035116155E+02 0.43600572935E+02 0.40868486257E+02
 0.38704786189E+02 0.37130852158E+02 0.36282284119E+02 0.36283418265E+02 0.37132285297E+02
 0.38704299490E+02 0.40867479703E+02 0.43600754250E+02 0.47034943187E+02 0.51324933981E+02
 0.56401143970E+02 0.61941377004E+02 0.67161425742E+02 0.70643508649E+02 0.70935032204E+02
 0.67499849194E+02 0.61357850432E+02 0.54877173244E+02 0.50755368879E+02 0.49368935485E+02
 0.51327566642E+02 0.56311967554E+02 0.62078281128E+02 0.66118137929E+02 0.66826263408E+02
 0.64094519716E+02 0.59034834983E+02 0.53128933900E+02 0.47448152620E+02 0.42461456852E+02
 0.38406808529E+02 0.35246295448E+02 0.32822200317E+02 0.31035866539E+02 0.29905704443E+02
 0.29513870019E+02 0.29905225713E+02 0.31035865498E+02 0.32822680406E+02 0.35246304152E+02
 0.38406343201E+02 0.42461466367E+02 0.47448633529E+02 0.53128932498E+02 0.59034353882E+02
 0.64094515649E+02 0.66826738159E+02 0.66118137756E+02 0.62077804734E+02 0.56311967541E+02
 0.51328043128E+02 0.51327566404E+02 0.51326413611E+02 0.54351311373E+02 0.58883142995E+02
 0.62661102591E+02 0.63812683816E+02 0.61689296322E+02 0.56948628096E+02 0.50935223661E+02
 0.44867189595E+02 0.39382177282E+02 0.34771541333E+02 0.31133866180E+02 0.28356867645E+02
 0.26301025707E+02 0.24902063383E+02 0.24180073149E+02 0.24179251516E+02 0.24901094391E+02
 0.26301410294E+02 0.28357190476E+02 0.31132917738E+02 0.34771246025E+02 0.39384146790E+02
 0.44869279555E+02 0.50934833588E+02 0.56946766431E+02 0.61688264333E+02 0.63812394745E+02
 0.62660715198E+02 0.58883602632E+02 0.54353146994E+02 0.56311967541E+02 0.55230995753E+02
 0.56311958264E+02 0.58883588005E+02 0.61308671522E+02 0.61884975547E+02 0.59723135313E+02
 0.55083948745E+02 0.49035500721E+02 0.42752362535E+02 0.36968696997E+02 0.31978368202E+02
 0.27955623618E+02 0.24854039351E+02 0.22535495743E+02 0.20891796205E+02 0.19890274667E+02
 0.19550943122E+02 0.19890277621E+02 0.20891800501E+02 0.22535499134E+02 0.24854040154E+02
 0.27955621306E+02 0.31978363185E+02 0.36968690099E+02 0.42752354843E+02 0.49035493903E+02
 0.55083945229E+02 0.59723137608E+02 0.61884984716E+02 0.61308685764E+02 0.58883602632E+02
 0.62078281457E+02 0.61345553790E+02 0.61345857090E+02 0.62078608299E+02 0.62660434242E+02
 0.61884155784E+02 0.58960590457E+02 0.53957660746E+02 0.47684067777E+02 0.41167847118E+02
 0.35138660877E+02 0.29882430307E+02 0.25567870528E+02 0.22197252055E+02 0.19646745724E+02
 0.17789518027E+02 0.16555641155E+02 0.15933396249E+02 0.15933594862E+02 0.16555845382E+02
 0.17789443313E+02 0.19646963279E+02 0.22198003555E+02 0.25568171962E+02 0.29881482272E+02
 0.35137229825E+02 0.41167167347E+02 0.47684241725E+02 0.53958134268E+02 0.58961265628E+02
 0.61884984716E+02 0.62660819464E+02 0.66118137756E+02 0.67084471515E+02 0.67315007887E+02
 0.67084285169E+02 0.66118142636E+02 0.63812400889E+02 0.59723142797E+02 0.53958135993E+02
 0.47187511614E+02 0.40295034307E+02 0.33952958387E+02 0.28432782857E+02 0.23861705197E+02
 0.20255903167E+02 0.17498782199E+02 0.15453644640E+02 0.14025202789E+02 0.13171729581E+02
 0.12886503167E+02 0.13171542369E+02 0.14025203613E+02 0.15453830699E+02 0.17498775301E+02
 0.20255706080E+02 0.23861699857E+02 0.28432971821E+02 0.33952963018E+02 0.40294851022E+02
 0.47187514394E+02 0.53958323163E+02 0.59723137608E+02 0.63812205850E+02 0.66826261435E+02
 0.70191824360E+02 0.71812232094E+02 0.71812615738E+02 0.70193127782E+02 0.66828226522E+02
 0.61689307059E+02 0.55083875458E+02 0.47683440777E+02 0.40294028400E+02 0.33536996891E+02
 0.27676493566E+02 0.22813987732E+02 0.18958885677E+02 0.15991840591E+02 0.13764938202E+02
 0.12162084722E+02 0.11115489748E+02 0.10596118408E+02 0.10596035557E+02 0.11115439073E+02
 0.12162172237E+02 0.13764801010E+02 0.15991329740E+02 0.18958510018E+02 0.22814158352E+02
 0.27676994760E+02 0.33537652149E+02 0.40295039917E+02 0.47684514041E+02 0.55083945229E+02
 0.61687887751E+02 0.64094515649E+02 0.69714661180E+02 0.73268296817E+02 0.74478842580E+02
 0.73268305058E+02 0.69714674109E+02 0.64094527958E+02 0.56946773599E+02 0.49035494047E+02
 0.41167161521E+02 0.33952954077E+02 0.27676985696E+02 0.22457143416E+02 0.18300471944E+02
 0.15085898620E+02 0.12655528792E+02 0.10874677225E+02 0.96522791355E+01 0.89359269491E+01
 0.86997322669E+01 0.89359269579E+01 0.96522792971E+01 0.10874677809E+02 0.12655530204E+02
 0.15085901437E+02 0.18300476813E+02 0.22457150674E+02 0.27676994760E+02 0.33952963018E+02
 0.41167167347E+02 0.49035493903E+02 0.56946766431E+02 0.59034830605E+02 0.66189982157E+02
 0.71532543382E+02 0.74384931654E+02 0.74383950742E+02 0.71530054446E+02 0.66187267223E+02
 0.59033453598E+02 0.50935838485E+02 0.42754326008E+02 0.35138655986E+02 0.28433155865E+02
 0.22813612795E+02 0.18300042356E+02 0.14781852702E+02 0.12102003275E+02 0.10114910766E+02
 0.87104120377E+01 0.78135613012E+01 0.73769597761E+01 0.73768958758E+01 0.78135017822E+01
 0.87105047320E+01 0.10115031983E+02 0.12101999807E+02 0.14781924642E+02 0.18300476813E+02
 0.22814091723E+02 0.28432782925E+02 0.35137024139E+02 0.42752354843E+02 0.50935143540E+02
 0.53128932498E+02 0.61022105043E+02 0.67626180112E+02 0.72033350182E+02 0.73582806527E+02
 0.72033342873E+02 0.67626169886E+02 0.61022095398E+02 0.53128925077E+02 0.44869278679E+02
 0.36968696121E+02 0.29881492298E+02 0.23861709104E+02 0.18958514505E+02 0.15085900302E+02
 0.12101995597E+02 0.98631864092E+01 0.82488842824E+01 0.71658244871E+01 0.65453972665E+01
 0.63437192001E+01 0.65453934374E+01 0.71658217950E+01 0.82488855468E+01 0.98631897559E+01
 0.12101998566E+02 0.15085901437E+02 0.18958511258E+02 0.23861699857E+02 0.29881481031E+02
 0.36968690099E+02 0.44869280796E+02 0.47448156805E+02 0.55569824777E+02 0.62926532682E+02
 0.68566733213E+02 0.71639177181E+02 0.71640077564E+02 0.68568918714E+02 0.62928740123E+02
 0.55570784822E+02 0.47447433248E+02 0.39382182446E+02 0.31977095194E+02 0.25568252454E+02
 0.20256515545E+02 0.15991841660E+02 0.12655443342E+02 0.10114809993E+02 0.82489008935E+01
 0.69543110743E+01 0.61457079437E+01 0.57591023668E+01 0.57591464667E+01 0.61457163804E+01
 0.69541981010E+01 0.82488843060E+01 0.10115023502E+02 0.12655530204E+02 0.15991404851E+02
 0.20255894975E+02 0.25568369167E+02 0.31978363185E+02 0.39383845319E+02 0.42461466367E+02
 0.50580168190E+02 0.58399167480E+02 0.64991782783E+02 0.69423537628E+02 0.70988870486E+02
 0.69423532077E+02 0.64991773925E+02 0.58399158809E+02 0.50580162937E+02 0.42461466175E+02
 0.34771250421E+02 0.27955628173E+02 0.22198010294E+02 0.17498780055E+02 0.13764803328E+02
 0.10874678467E+02 0.87105049533E+01 0.71658223885E+01 0.61457173425E+01 0.55705302546E+01
 0.53853891060E+01 0.55705295038E+01 0.61457163804E+01 0.71658217950E+01 0.87105047320E+01
 0.10874677809E+02 0.13764801010E+02 0.17498775301E+02 0.22198003555E+02 0.27955621306E+02
 0.34771246025E+02 0.38406819924E+02 0.46370934547E+02 0.54437947978E+02 0.61763285206E+02
 0.67383959743E+02 0.70446277748E+02 0.70446028397E+02 0.67383377488E+02 0.61762714530E+02
 0.54437643209E+02 0.46370948928E+02 0.38407050105E+02 0.31133491940E+02 0.24854168219E+02
 0.19646739741E+02 0.15453622524E+02 0.12162186673E+02 0.96524004273E+01 0.78135593025E+01
 0.65453846775E+01 0.57591344084E+01 0.53853807043E+01 0.53853891060E+01 0.57591590779E+01
 0.65453946783E+01 0.78134976521E+01 0.96522792971E+01 0.12162109738E+02 0.15453641804E+02
 0.19646753462E+02 0.24854040154E+02 0.31133231820E+02 0.35246304152E+02 0.43004228010E+02
 0.51168596804E+02 0.59009316846E+02 0.65617477517E+02 0.70059762781E+02 0.71628602789E+02
 0.70059806157E+02 0.65617492738E+02 0.59009297603E+02 0.51168604843E+02 0.43004260681E+02
 0.35246295295E+02 0.28357178016E+02 0.22535487902E+02 0.17789436448E+02 0.14025201423E+02
 0.11115439558E+02 0.89359274973E+01 0.73768949606E+01 0.63437171469E+01 0.57591006866E+01
 0.55705302546E+01 0.57591360887E+01 0.63437192001E+01 0.73768621540E+01 0.89359269579E+01
 0.11115472795E+02 0.14025203613E+02 0.17789409591E+02 0.22535499134E+02 0.28357224198E+02
 0.32822203682E+02 0.40325927080E+02 0.48455577023E+02 0.56630623085E+02 0.64014874982E+02
 0.69654502680E+02 0.72716394247E+02 0.72715877876E+02 0.69653219415E+02 0.64013591197E+02
 0.56630248587E+02 0.48456408893E+02 0.40327272760E+02 0.32823017799E+02 0.26301019090E+02
 0.20891197203E+02 0.16555538230E+02 0.13171568448E+02 0.10596121987E+02 0.86997009985E+01
 0.73768612388E+01 0.65453446386E+01 0.61457173425E+01 0.61457353714E+01 0.65453960256E+01
 0.73769238672E+01 0.86997322669E+01 0.10596138096E+02 0.13171731264E+02 0.16556015159E+02
 0.20891800501E+02 0.26301136251E+02 0.31035865498E+02 0.38206839517E+02 0.46166012367E+02
 0.54444505628E+02 0.62280387009E+02 0.68762429046E+02 0.73045187726E+02 0.74542182080E+02
 0.73045187920E+02 0.68762430426E+02 0.62280390297E+02 0.54444510036E+02 0.46166015734E+02
 0.38206839927E+02 0.31035863015E+02 0.24901091304E+02 0.19890276796E+02 0.15933597479E+02
 0.12886507744E+02 0.10596121987E+02 0.89359274973E+01 0.78135593025E+01 0.71658223885E+01
 0.69543110743E+01 0.71658244871E+01 0.78135613012E+01 0.89359269491E+01 0.10596118408E+02
 0.12886503167E+02 0.15933594862E+02 0.19890277621E+02 0.24901094391E+02 0.29905702436E+02
 0.36667032322E+02 0.44299177088E+02 0.52396708585E+02 0.60250169499E+02 0.67018947050E+02
 0.71953920909E+02 0.74543786364E+02 0.74544777050E+02 0.71956244666E+02 0.67021130857E+02
 0.60250934516E+02 0.52395765500E+02 0.44297317115E+02 0.36665512421E+02 0.29905329224E+02
 0.24180181944E+02 0.19551744354E+02 0.15933597479E+02 0.13171616570E+02 0.11115473280E+02
 0.96523923442E+01 0.87105049533E+01 0.82489215878E+01 0.82488855233E+01 0.87103998245E+01
 0.96522791355E+01 0.11115435332E+02 0.13171540686E+02 0.15933178350E+02 0.19550943122E+02
 0.24179573681E+02 0.29513870019E+02 0.35835653395E+02 0.43022166331E+02 0.50689600476E+02
 0.58132252568E+02 0.64551814233E+02 0.69342373395E+02 0.72229346783E+02 0.73183916537E+02
 0.72229235181E+02 0.69342357843E+02 0.64551900529E+02 0.58132242285E+02 0.50689496730E+02
 0.43022172643E+02 0.35835766194E+02 0.29513880578E+02 0.24180079938E+02 0.19890276796E+02
 0.16555640236E+02 0.14025201423E+02 0.12162084667E+02 0.10874678467E+02 0.10114911999E+02
 0.98631864092E+01 0.10114808760E+02 0.10874677225E+02 0.12162186728E+02 0.14025202789E+02
 0.16555539149E+02 0.19890274667E+02 0.24180175155E+02 0.29905227719E+02 0.35834383819E+02
 0.42561438506E+02 0.49692261784E+02 0.56467995164E+02 0.62054306514E+02 0.65938607354E+02
 0.68139491784E+02 0.69054434440E+02 0.69053408637E+02 0.68137413859E+02 0.65937062747E+02
 0.62053672588E+02 0.56468014026E+02 0.49693140106E+02 0.42563098047E+02 0.35835664188E+02
 0.29905178141E+02 0.24901091304E+02 0.20891300164E+02 0.17789402726E+02 0.15453479524E+02
 0.13764803328E+02 0.12655573730E+02 0.12101994356E+02 0.12101864406E+02 0.12655528792E+02
 0.13765143701E+02 0.15453833536E+02 0.17789584844E+02 0.20891796205E+02 0.24901892300E+02
 0.31035866539E+02 0.36665513349E+02 0.43022172932E+02 0.49693141150E+02 0.55831171643E+02
 0.60469545170E+02 0.63051125319E+02 0.63791826112E+02 0.63568672706E+02 0.63354676247E+02
 0.63568675753E+02 0.63791830107E+02 0.63051127792E+02 0.60469545196E+02 0.55831170290E+02
 0.49693140106E+02 0.43022172643E+02 0.36665512421E+02 0.31035863015E+02 0.26301019090E+02
 0.22535487902E+02 0.19646739741E+02 0.17498780055E+02 0.15991841660E+02 0.15085900302E+02