    4    4   50    1
  0.8797333E+01  0.2461200E-09  0.2461200E-09  0.6707900E-09  0.5000000E-15
  1.000000000000000E-004
  CAR 
 unknown system                          
   16   80   12
 
  0.6250000E-01  0.6250000E-01  0.6250000E-01  0.7812500E-02
   1      -14.698402
   2      -14.413462
   3       -3.478499
   4       -1.594055
   5        0.684261
   6        0.710228
   7        1.122090
   8        1.142487
   9        9.359369
  10       13.279974
  11       13.371051
  12       14.143989
 
  0.1875000E+00  0.6250000E-01  0.6250000E-01  0.1562500E-01
   1      -13.769590
   2      -13.500901
   3       -2.358232
   4       -1.936510
   5       -1.859755
   6       -0.553759
   7       -0.264917
   8       -0.219511
   9       10.492198
  10       12.490324
  11       12.971471
  12       13.251357
 
  0.3125000E+00  0.6250000E-01  0.6250000E-01  0.1562500E-01
   1      -12.127822
   2      -11.887539
   3       -5.202888
   4       -5.072694
   5       -1.441406
   6       -1.384378
   7       -0.429707
   8        1.175987
   9        8.932595
  10        9.789864
  11       12.434514
  12       12.777855
 
  0.4375000E+00  0.6250000E-01  0.6250000E-01  0.1562500E-01
   1       -9.915571
   2       -9.736104
   3       -8.182891
   4       -8.033223
   5       -1.990789
   6       -1.930236
   7        1.809730
   8        2.676347
   9        6.329882
  10        7.058941
  11       12.435331
  12       12.826785
 
 -0.4375000E+00  0.6250000E-01  0.6250000E-01  0.1562500E-01
   1      -11.064786
   2      -10.844342
   3       -6.787073
   4       -6.634872
   5       -1.805130
   6       -1.745680
   7        0.741064
   8        2.115829
   9        7.315701
  10        8.251468
  11       12.533687
  12       12.892607
 
 -0.3125000E+00  0.6250000E-01  0.6250000E-01  0.1562500E-01
   1      -13.034571
   2      -12.778547
   3       -3.557368
   4       -3.452890
   5       -1.483776
   6       -0.917117
   7       -0.864399
   8        0.244326
   9       10.728868
  10       11.390579
  11       11.408926
  12       13.003030
 
 -0.1875000E+00  0.6250000E-01  0.6250000E-01  0.1562500E-01
   1      -14.325633
   2      -14.047271
   3       -3.027309
   4       -1.173235
   5       -0.464128
   6       -0.416569
   7        0.454877
   8        0.487865
   9        9.813347
  10       13.381014
  11       13.535206
  12       14.030074
 
 -0.6250000E-01  0.6250000E-01  0.6250000E-01  0.7812500E-02
   1      -14.885363
   2      -14.597138
   3       -3.705469
   4       -1.806557
   5        1.337207
   6        1.363716
   7        1.516572
   8        1.540366
   9        9.133002
  10       13.141420
  11       13.209080
  12       13.516420
 
  0.1875000E+00  0.1875000E+00  0.6250000E-01  0.7812500E-02
   1      -12.489713
   2      -12.243097
   3       -3.795154
   4       -3.737329
   5       -2.360790
   6       -2.318030
   7       -0.836235
   8        0.834160
   9        9.955084
  10       10.455506
  11       12.077556
  12       15.176741
 
  0.3125000E+00  0.1875000E+00  0.6250000E-01  0.1562500E-01
   1      -10.547741
   2      -10.336868
   3       -6.442438
   4       -6.310724
   5       -3.678550
   6       -3.589902
   7        1.369819
   8        2.711535
   9        7.056866
  10        7.736865
  11       14.443766
  12       15.164616
 
  0.4375000E+00  0.1875000E+00  0.6250000E-01  0.1562500E-01
   1       -9.425006
   2       -9.254541
   3       -7.750785
   4       -7.614886
   5       -3.906925
   6       -3.810909
   7        2.465744
   8        3.333541
   9        6.139528
  10        6.590728
  11       15.030220
  12       15.590671
 
 -0.4375000E+00  0.1875000E+00  0.6250000E-01  0.1562500E-01
   1      -11.593760
   2      -11.362895
   3       -5.042568
   4       -4.948422
   5       -3.187119
   6       -3.118909
   7        0.204798
   8        1.754448
   9        8.487504
  10        9.077337
  11       13.179088
  12       15.332484
 
 -0.3125000E+00  0.1875000E+00  0.6250000E-01  0.1562500E-01
   1      -13.217868
   2      -12.958691
   3       -2.813037
   4       -2.742533
   5       -1.698443
   6       -1.275876
   7       -1.227939
   8        0.052189
   9       11.172433
  10       11.308355
  11       11.792055
  12       14.127798
 
 -0.1875000E+00  0.1875000E+00  0.6250000E-01  0.7812500E-02
   1      -14.139838
   2      -13.864710
   3       -2.803333
   4       -1.110356
   5       -1.040395
   6       -0.965355
   7        0.339870
   8        0.380884
   9       10.037761
  10       12.996922
  11       13.202732
  12       13.450440
 
  0.3125000E+00  0.3125000E+00  0.6250000E-01  0.7812500E-02
   1       -8.498834
   2       -8.348769
   3       -7.466410
   4       -7.379342
   5       -5.702705
   6       -5.661640
   7        3.620054
   8        4.479397
   9        5.060362
  10        5.730967
  11       15.874581
  12       15.879210
 
  0.4375000E+00  0.3125000E+00  0.6250000E-01  0.1562500E-01
   1       -9.550175
   2       -9.361859
   3       -6.905275
   4       -6.794045
   5       -4.891439
   6       -4.807205
   7        2.478192
   8        3.614951
   9        6.084983
  10        6.681966
  11       15.581583
  12       16.257650
 
 -0.4375000E+00  0.3125000E+00  0.6250000E-01  0.1562500E-01
   1      -11.416003
   2      -11.188499
   3       -5.886301
   4       -5.751491
   5       -2.443617
   6       -2.369952
   7        0.387429
   8        1.882755
   9        7.989352
  10        8.789301
  11       13.353588
  12       13.761148
 
 -0.3125000E+00  0.3125000E+00  0.6250000E-01  0.7812500E-02
   1      -12.669817
   2      -12.420099
   3       -4.408445
   4       -4.288123
   5       -1.058171
   6       -0.900937
   7       -0.851545
   8        0.623012
   9        9.875038
  10       10.693628
  11       11.801992
  12       12.476506
 
  0.4375000E+00  0.4375000E+00  0.6250000E-01  0.7812500E-02
   1       -9.373839
   2       -9.268298
   3       -8.333233
   4       -8.256438
   5       -2.832967
   6       -2.754171
   7        2.291557
   8        2.950718
   9        6.202143
  10        6.666112
  11       13.522285
  12       13.968917
 
 -0.4375000E+00  0.4375000E+00  0.6250000E-01  0.7812500E-02
   1      -10.552118
   2      -10.344232
   3       -7.581067
   4       -7.420598
   5       -1.612825
   6       -1.560320
   7        1.236828
   8        2.402834
   9        6.711477
  10        7.627006
  11       12.064700
  12       12.436052
 
  0.6250000E-01  0.6250000E-01  0.1875000E+00  0.7812500E-02
   1      -14.677929
   2      -14.436488
   3       -3.356470
   4       -1.767942
   5        0.686366
   6        0.708422
   7        1.123534
   8        1.140829
   9        9.730413
  10       13.277647
  11       13.365647
  12       14.136317
 
  0.1875000E+00  0.6250000E-01  0.1875000E+00  0.1562500E-01
   1      -13.750216
   2      -13.522511
   3       -2.240893
   4       -1.930732
   5       -1.865549
   6       -0.718731
   7       -0.261515
   8       -0.223052
   9       10.840478
  10       12.524585
  11       12.917744
  12       13.266839
 
  0.3125000E+00  0.6250000E-01  0.1875000E+00  0.1562500E-01
   1      -12.110378
   2      -11.906740
   3       -5.193234
   4       -5.082907
   5       -1.437150
   6       -1.388771
   7       -0.322804
   8        1.033393
   9        8.981388
  10        9.711185
  11       12.649036
  12       12.834852
 
  0.4375000E+00  0.6250000E-01  0.1875000E+00  0.1562500E-01
   1       -9.902118
   2       -9.749941
   3       -8.172444
   4       -8.045504
   5       -1.986293
   6       -1.934926
   7        1.883104
   8        2.624190
   9        6.337619
  10        6.963386
  11       12.463615
  12       12.795661
 
 -0.4375000E+00  0.6250000E-01  0.1875000E+00  0.1562500E-01
   1      -11.048708
   2      -10.861862
   3       -6.775897
   4       -6.646864
   5       -1.800684
   6       -1.750212
   7        0.836769
   8        2.001165
   9        7.361903
  10        8.158586
  11       12.562492
  12       12.867860
 
 -0.3125000E+00  0.6250000E-01  0.1875000E+00  0.1562500E-01
   1      -13.016053
   2      -12.799082
   3       -3.549597
   4       -3.461017
   5       -1.370446
   6       -0.913148
   7       -0.868464
   8        0.087788
   9       10.758093
  10       11.345473
  11       11.742944
  12       13.022393
 
 -0.1875000E+00  0.6250000E-01  0.1875000E+00  0.1562500E-01
   1      -14.305599
   2      -14.069720
   3       -2.907006
   4       -1.343749
   5       -0.460406
   6       -0.420116
   7        0.457280
   8        0.485274
   9       10.177082
  10       13.376088
  11       13.521088
  12       14.061625
 
 -0.6250000E-01  0.6250000E-01  0.1875000E+00  0.7812500E-02
   1      -14.864662
   2      -14.620434
   3       -3.582608
   4       -1.981954
   5        1.339204
   6        1.361700
   7        1.518429
   8        1.538547
   9        9.507450
  10       13.143028
  11       13.204489
  12       13.508763
 
  0.1875000E+00  0.1875000E+00  0.1875000E+00  0.7812500E-02
   1      -12.471816
   2      -12.262833
   3       -3.790579
   4       -3.741536
   5       -2.358054
   6       -2.321814
   7       -0.726125
   8        0.683957
   9        9.992986
  10       10.415610
  11       12.393388
  12       15.171260
 
  0.3125000E+00  0.1875000E+00  0.1875000E+00  0.1562500E-01
   1      -10.532328
   2      -10.353614
   3       -6.432688
   4       -6.321018
   5       -3.672094
   6       -3.596943
   7        1.463013
   8        2.599167
   9        7.099714
  10        7.678393
  11       14.625715
  12       15.176327
 
  0.4375000E+00  0.1875000E+00  0.1875000E+00  0.1562500E-01
   1       -9.412175
   2       -9.267653
   3       -7.741253
   4       -7.625958
   5       -3.899871
   6       -3.818478
   7        2.539004
   8        3.281775
   9        6.141194
  10        6.532790
  11       15.054080
  12       15.487999
 
 -0.4375000E+00  0.1875000E+00  0.1875000E+00  0.1562500E-01
   1      -11.576963
   2      -11.381326
   3       -5.035388
   4       -4.955551
   5       -3.182348
   6       -3.124515
   7        0.308364
   8        1.617683
   9        8.530813
  10        9.030828
  11       13.451087
  12       15.341501
 
 -0.3125000E+00  0.1875000E+00  0.1875000E+00  0.1562500E-01
   1      -13.199120
   2      -12.979492
   3       -2.807677
   4       -2.747968
   5       -1.583880
   6       -1.272491
   7       -1.231830
   8       -0.106880
   9       11.320223
  10       11.529885
  11       11.756028
  12       14.138131
 
 -0.1875000E+00  0.1875000E+00  0.1875000E+00  0.7812500E-02
   1      -14.120019
   2      -13.886876
   3       -2.683938
   4       -1.135907
   5       -1.103219
   6       -1.045595
   7        0.343051
   8        0.377725
   9       10.396294
  10       12.997213
  11       13.182218
  12       13.491550
 
  0.3125000E+00  0.3125000E+00  0.1875000E+00  0.7812500E-02
   1       -8.487459
   2       -8.360158
   3       -7.459761
   4       -7.385962
   5       -5.700802
   6       -5.665926
   7        3.694249
   8        4.430759
   9        5.099257
  10        5.657291
  11       15.475534
  12       15.548951
 
  0.4375000E+00  0.3125000E+00  0.1875000E+00  0.1562500E-01
   1       -9.536293
   2       -9.376699
   3       -6.896915
   4       -6.802588
   5       -4.885686
   6       -4.814278
   7        2.561227
   8        3.526585
   9        6.124001
  10        6.629239
  11       15.425243
  12       15.910479
 
 -0.4375000E+00  0.3125000E+00  0.1875000E+00  0.1562500E-01
   1      -11.399437
   2      -11.206615
   3       -5.876304
   4       -5.762046
   5       -2.438132
   6       -2.375744
   7        0.488507
   8        1.752779
   9        8.037502
  10        8.718404
  11       13.586390
  12       13.802667
 
 -0.3125000E+00  0.3125000E+00  0.1875000E+00  0.7812500E-02
   1      -12.651753
   2      -12.440085
   3       -4.399532
   4       -4.297516
   5       -0.947258
   6       -0.897216
   7       -0.855375
   8        0.471760
   9        9.917466
  10       10.616858
  11       12.106217
  12       12.504892
 
  0.4375000E+00  0.4375000E+00  0.1875000E+00  0.7812500E-02
   1       -9.364588
   2       -9.274830
   3       -8.329904
   4       -8.264506
   5       -2.827109
   6       -2.760299
   7        2.355661
   8        2.921938
   9        6.188094
  10        6.591232
  11       13.552093
  12       13.930469
 
 -0.4375000E+00  0.4375000E+00  0.1875000E+00  0.7812500E-02
   1      -10.536865
   2      -10.360669
   3       -7.569393
   4       -7.433384
   5       -1.608877
   6       -1.564318
   7        1.323381
   8        2.314548
   9        6.744080
  10        7.525228
  11       12.092434
  12       12.407331
 
  0.6250000E-01  0.6250000E-01  0.3125000E+00  0.7812500E-02
   1      -14.639611
   2      -14.478380
   3       -3.124281
   4       -2.070967
   5        0.690190
   6        0.704896
   7        1.126216
   8        1.137777
   9       10.423394
  10       13.233472
  11       13.356596
  12       13.708179
 
  0.1875000E+00  0.6250000E-01  0.3125000E+00  0.1562500E-01
   1      -13.713980
   2      -13.561915
   3       -2.018407
   4       -1.919891
   5       -1.875663
   6       -1.007345
   7       -0.255280
   8       -0.229536
   9       11.483371
  10       12.593958
  11       12.825663
  12       13.281673
 
  0.3125000E+00  0.6250000E-01  0.3125000E+00  0.1562500E-01
   1      -12.077792
   2      -11.941802
   3       -5.175359
   4       -5.101597
   5       -1.429234
   6       -1.396852
   7       -0.120142
   8        0.781452
   9        9.081293
  10        9.571423
  11       12.783964
  12       12.923463
 
  0.4375000E+00  0.6250000E-01  0.3125000E+00  0.1562500E-01
   1       -9.877146
   2       -9.775454
   3       -8.152728
   4       -8.067825
   5       -1.977846
   6       -1.943486
   7        2.017482
   8        2.518730
   9        6.377391
  10        6.802659
  11       12.516390
  12       12.738313
 
 -0.4375000E+00  0.6250000E-01  0.3125000E+00  0.1562500E-01
   1      -11.018703
   2      -10.893888
   3       -6.755051
   4       -6.668824
   5       -1.792421
   6       -1.758688
   7        1.017090
   8        1.794040
   9        7.460760
  10        7.996044
  11       12.614270
  12       12.818950
 
 -0.3125000E+00  0.6250000E-01  0.3125000E+00  0.1562500E-01
   1      -12.981423
   2      -12.836531
   3       -3.535142
   4       -3.475968
   5       -1.155132
   6       -0.905833
   7       -0.875880
   8       -0.186918
   9       10.837046
  10       11.235342
  11       12.352845
  12       13.054402
 
 -0.1875000E+00  0.6250000E-01  0.3125000E+00  0.1562500E-01
   1      -14.268124
   2      -14.110607
   3       -2.678153
   4       -1.641493
   5       -0.453586
   6       -0.426722
   7        0.461781
   8        0.480516
   9       10.855572
  10       13.339255
  11       13.498581
  12       14.030877
 
 -0.6250000E-01  0.6250000E-01  0.3125000E+00  0.7812500E-02
   1      -14.825930
   2      -14.662834
   3       -3.348810
   4       -2.287567
   5        1.342925
   6        1.357963
   7        1.521786
   8        1.535230
   9       10.207133
  10       13.124332
  11       13.196397
  12       13.533005
 
  0.1875000E+00  0.1875000E+00  0.3125000E+00  0.7812500E-02
   1      -12.438424
   2      -12.298845
   3       -3.782200
   4       -3.749426
   5       -2.352739
   6       -2.328514
   7       -0.517113
   8        0.419529
   9       10.062843
  10       10.344231
  11       12.974825
  12       15.082192
 
  0.3125000E+00  0.1875000E+00  0.3125000E+00  0.1562500E-01
   1      -10.503580
   2      -10.384200
   3       -6.414545
   4       -6.339906
   5       -3.659985
   6       -3.609789
   7        1.638656
   8        2.396497
   9        7.184271
  10        7.572900
  11       14.906775
  12       15.196393
 
  0.4375000E+00  0.1875000E+00  0.3125000E+00  0.1562500E-01
   1       -9.388437
   2       -9.291802
   3       -7.723247
   4       -7.646181
   5       -3.886708
   6       -3.832296
   7        2.673469
   8        3.176371
   9        6.163168
  10        6.433520
  11       15.089605
  12       15.338818
 
 -0.4375000E+00  0.1875000E+00  0.3125000E+00  0.1562500E-01
   1      -11.545611
   2      -11.414943
   3       -5.022082
   4       -4.968764
   5       -3.173341
   6       -3.134688
   7        0.504632
   8        1.375352
   9        8.611816
  10        8.945987
  11       13.940522
  12       15.325469
 
 -0.3125000E+00  0.1875000E+00  0.3125000E+00  0.1562500E-01
   1      -13.164099
   2      -13.017432
   3       -2.797778
   4       -2.757886
   5       -1.366228
   6       -1.266023
   7       -1.238882
   8       -0.385829
   9       11.393954
  10       11.673537
  11       12.159863
  12       14.131569
 
 -0.1875000E+00  0.1875000E+00  0.3125000E+00  0.7812500E-02
   1      -14.082970
   2      -13.927256
   3       -2.456928
   4       -1.429247
   5       -1.094871
   6       -1.055563
   7        0.348776
   8        0.371959
   9       11.063018
  10       12.990256
  11       13.150503
  12       13.552227
 
  0.3125000E+00  0.3125000E+00  0.3125000E+00  0.7812500E-02
   1       -8.466418
   2       -8.381313
   3       -7.447514
   4       -7.398239
   5       -5.696695
   6       -5.673353
   7        3.830111
   8        4.330132
   9        5.172998
  10        5.535690
  11       15.145532
  12       15.216697
 
  0.4375000E+00  0.3125000E+00  0.3125000E+00  0.1562500E-01
   1       -9.510475
   2       -9.403872
   3       -6.881391
   4       -6.818326
   5       -4.874803
   6       -4.827021
   7        2.716619
   8        3.363034
   9        6.199304
  10        6.536154
  11       15.272479
  12       15.575109
 
 -0.4375000E+00  0.3125000E+00  0.3125000E+00  0.1562500E-01
   1      -11.368520
   2      -11.239731
   3       -5.857819
   4       -5.781414
   5       -2.427986
   6       -2.386292
   7        0.679796
   8        1.521340
   9        8.133836
  10        8.591117
  11       13.783513
  12       13.918670
 
 -0.3125000E+00  0.3125000E+00  0.3125000E+00  0.7812500E-02
   1      -12.617957
   2      -12.476582
   3       -4.382918
   4       -4.314749
   5       -0.890215
   6       -0.862387
   7       -0.736827
   8        0.205808
   9       10.010126
  10       10.481342
  11       12.454099
  12       12.573159
 
  0.4375000E+00  0.4375000E+00  0.3125000E+00  0.7812500E-02
   1       -9.347934
   2       -9.287679
   3       -8.322630
   4       -8.278638
   5       -2.816195
   6       -2.771619
   7        2.470746
   8        2.856335
   9        6.188289
  10        6.466999
  11       13.608202
  12       13.860467
 
 -0.4375000E+00  0.4375000E+00  0.3125000E+00  0.7812500E-02
   1      -10.508463
   2      -10.390744
   3       -7.547532
   4       -7.456691
   5       -1.601422
   6       -1.571650
   7        1.484945
   8        2.149622
   9        6.824285
  10        7.350756
  11       12.143761
  12       12.354182
 
  0.6250000E-01  0.6250000E-01  0.4375000E+00  0.7812500E-02
   1      -14.588554
   2      -14.531972
   3       -2.805862
   4       -2.437979
   5        0.695041
   6        0.700215
   7        1.129798
   8        1.133880
   9       11.360546
  10       12.443670
  11       13.347807
  12       13.352800
 
  0.1875000E+00  0.6250000E-01  0.4375000E+00  0.1562500E-01
   1      -13.665745
   2      -13.612369
   3       -1.906430
   4       -1.891707
   5       -1.710085
   6       -1.357958
   7       -0.246943
   8       -0.237882
   9       12.290889
  10       12.694151
  11       12.735291
  12       13.181301
 
  0.3125000E+00  0.6250000E-01  0.4375000E+00  0.1562500E-01
   1      -12.034544
   2      -11.986809
   3       -5.151691
   4       -5.125764
   5       -1.418776
   6       -1.407435
   7        0.155795
   8        0.471305
   9        9.226677
  10        9.399326
  11       12.852066
  12       12.906562
 
  0.4375000E+00  0.6250000E-01  0.4375000E+00  0.1562500E-01
   1       -9.844341
   2       -9.808631
   3       -8.126078
   4       -8.096258
   5       -1.966738
   6       -1.954680
   7        2.189175
   8        2.366699
   9        6.472852
  10        6.623959
  11       12.586600
  12       12.664537
 
 -0.4375000E+00  0.6250000E-01  0.4375000E+00  0.1562500E-01
   1      -10.978937
   2      -10.935095
   3       -6.727498
   4       -6.697221
   5       -1.781526
   6       -1.769742
   7        1.259821
   8        1.532359
   9        7.612375
  10        7.801000
  11       12.680936
  12       12.752933
 
 -0.3125000E+00  0.6250000E-01  0.4375000E+00  0.1562500E-01
   1      -12.935407
   2      -12.884532
   3       -3.516107
   4       -3.495347
   5       -0.896275
   6       -0.885815
   7       -0.860489
   8       -0.522241
   9       10.957202
  10       11.097840
  11       12.949885
  12       13.073380
 
 -0.1875000E+00  0.6250000E-01  0.4375000E+00  0.1562500E-01
   1      -14.218217
   2      -14.162919
   3       -2.364510
   4       -2.002325
   5       -0.444809
   6       -0.435398
   7        0.467749
   8        0.474328
   9       11.768821
  10       12.795150
  11       13.482091
  12       13.517096
 
 -0.6250000E-01  0.6250000E-01  0.4375000E+00  0.7812500E-02
   1      -14.774301
   2      -14.717059
   3       -3.028142
   4       -2.657455
   5        1.347840
   6        1.353057
   7        1.526160
   8        1.530880
   9       11.155062
  10       12.260221
  11       13.181680
  12       13.187300
 
  0.1875000E+00  0.1875000E+00  0.4375000E+00  0.7812500E-02
   1      -12.394071
   2      -12.345092
   3       -3.771396
   4       -3.759848
   5       -2.345387
   6       -2.336859
   7       -0.231706
   8        0.095846
   9       10.154047
  10       10.252683
  11       13.737923
  12       14.553616
 
  0.3125000E+00  0.1875000E+00  0.4375000E+00  0.1562500E-01
   1      -10.465478
   2      -10.423574
   3       -6.390599
   4       -6.364391
   5       -3.643997
   6       -3.626375
   7        1.875114
   8        2.140896
   9        7.303052
  10        7.439990
  11       15.133512
  12       15.204819
 
  0.4375000E+00  0.1875000E+00  0.4375000E+00  0.1562500E-01
   1       -9.357268
   2       -9.323318
   3       -7.699055
   4       -7.671962
   5       -3.869322
   6       -3.850198
   7        2.845469
   8        3.023691
   9        6.223251
  10        6.320329
  11       15.137641
  12       15.215600
 
 -0.4375000E+00  0.1875000E+00  0.4375000E+00  0.1562500E-01
   1      -11.504005
   2      -11.458126
   3       -5.004789
   4       -4.986052
   5       -3.161213
   6       -3.147648
   7        0.771656
   8        1.076398
   9        8.719041
  10        8.836432
  11       14.548773
  12       15.104540
 
 -0.3125000E+00  0.1875000E+00  0.4375000E+00  0.1562500E-01
   1      -13.117548
   2      -13.066062
   3       -2.784837
   4       -2.770832
   5       -1.257480
   6       -1.247962
   7       -1.068443
   8       -0.725784
   9       11.484013
  10       11.582312
  11       12.988218
  12       13.841636
 
 -0.1875000E+00  0.1875000E+00  0.4375000E+00  0.7812500E-02
   1      -14.033615
   2      -13.978958
   3       -2.145775
   4       -1.786701
   5       -1.082266
   6       -1.068435
   7        0.356199
   8        0.364417
   9       11.948612
  10       12.810306
  11       13.135375
  12       13.281736
 
  0.3125000E+00  0.3125000E+00  0.4375000E+00  0.7812500E-02
   1       -8.438840
   2       -8.408959
   3       -7.431506
   4       -7.414222
   5       -5.690300
   6       -5.682095
   7        4.003385
   8        4.181065
   9        5.275680
  10        5.400418
  11       14.984894
  12       15.012716
 
  0.4375000E+00  0.3125000E+00  0.4375000E+00  0.1562500E-01
   1       -9.476353
   2       -9.438928
   3       -6.861014
   4       -6.838846
   5       -4.859899
   6       -4.843156
   7        2.922988
   8        3.150322
   9        6.302913
  10        6.421028
  11       15.232055
  12       15.336031
 
 -0.4375000E+00  0.3125000E+00  0.4375000E+00  0.1562500E-01
   1      -11.327508
   2      -11.282291
   3       -5.833294
   4       -5.806475
   5       -2.414556
   6       -2.399877
   7        0.939290
   8        1.233987
   9        8.271408
  10        8.432516
  11       13.861059
  12       13.920257
 
 -0.3125000E+00  0.3125000E+00  0.4375000E+00  0.7812500E-02
   1      -12.573044
   2      -12.523428
   3       -4.361101
   4       -4.337104
   5       -0.881212
   6       -0.871439
   7       -0.449538
   8       -0.119884
   9       10.149046
  10       10.315273
  11       12.552052
  12       12.595582
 
  0.4375000E+00  0.4375000E+00  0.4375000E+00  0.7812500E-02
   1       -9.327069
   2       -9.305839
   3       -8.310766
   4       -8.295258
   5       -2.801804
   6       -2.786175
   7        2.612267
   8        2.749518
   9        6.234350
  10        6.334553
  11       13.684750
  12       13.773144
 
 -0.4375000E+00  0.4375000E+00  0.4375000E+00  0.7812500E-02
   1      -10.470835
   2      -10.429501
   3       -7.518568
   4       -7.486682
   5       -1.591800
   6       -1.581294
   7        1.698845
   8        1.932803
   9        6.962373
  10        7.148323
  11       12.211237
  12       12.285147
