       N       E                     dE             d eps       ncg     rms          rms(c)
DAV:   1     0.638891999996E+02    0.63889E+02   -0.10147E+04  1920   0.166E+03
DAV:   2    -0.346562387052E+02   -0.98545E+02   -0.90263E+02  2780   0.254E+02
DAV:   3    -0.392123573463E+02   -0.45561E+01   -0.45177E+01  2476   0.553E+01
DAV:   4    -0.392679833567E+02   -0.55626E-01   -0.55565E-01  2364   0.708E+00
DAV:   5    -0.392692217838E+02   -0.12384E-02   -0.12376E-02  2412   0.102E+00    0.787E+00
DAV:   6    -0.374315017653E+02    0.18377E+01   -0.18183E+00  2244   0.945E+00    0.412E+00
DAV:   7    -0.368490935041E+02    0.58241E+00   -0.18995E+00  2288   0.975E+00    0.686E-01
DAV:   8    -0.368572795102E+02   -0.81860E-02   -0.48820E-02  2216   0.155E+00    0.919E-02
DAV:   9    -0.368574198639E+02   -0.14035E-03   -0.12856E-03  2460   0.301E-01    0.388E-02
DAV:  10    -0.368575516652E+02   -0.13180E-03   -0.15439E-04  2204   0.112E-01    0.578E-03
DAV:  11    -0.368575529743E+02   -0.13090E-05   -0.38485E-06  1552   0.182E-02
   1 F= -.36857553E+02 E0= -.36857566E+02  d E =-.368576E+02
       N       E                     dE             d eps       ncg     rms          rms(c)
DAV:   1    -0.368583201135E+02   -0.76845E-03   -0.26937E-02  1984   0.141E+00    0.979E-02
DAV:   2    -0.368579003950E+02    0.41972E-03   -0.58556E-04  2396   0.188E-01    0.561E-02
DAV:   3    -0.368577042872E+02    0.19611E-03   -0.61268E-04  2408   0.172E-01    0.114E-02
DAV:   4    -0.368577032824E+02    0.10048E-05   -0.13693E-05  1348   0.295E-02
   2 F= -.36857703E+02 E0= -.36857716E+02  d E =-.150308E-03
