<?xml version="1.0" encoding="ISO-8859-1"?>
<modeling>
 <generator>
  <i name="program" type="string">vasp </i>
  <i name="version" type="string">5.2.12  </i>
  <i name="subversion" type="string">11Nov11 complex                                                      parallel </i>
  <i name="platform" type="string">LinuxIFC </i>
  <i name="date" type="string">2012 10 24 </i>
  <i name="time" type="string">13:36:20 </i>
 </generator>
 <incar>
  <i type="string" name="PREC">normal</i>
  <i type="int" name="IBRION">     1</i>
  <i type="int" name="NSW">    50</i>
  <i type="int" name="ISIF">     4</i>
  <i name="ENCUT">    750.00000000</i>
  <i name="SIGMA">      0.05000000</i>
 </incar>
 <kpoints>
  <generation param="Monkhorst-Pack">
   <v type="int" name="divisions">       8        8        8 </v>
   <v name="usershift">      0.00000000       0.00000000       0.00000000 </v>
   <v name="genvec1">      0.12500000       0.00000000       0.00000000 </v>
   <v name="genvec2">      0.00000000       0.12500000       0.00000000 </v>
   <v name="genvec3">      0.00000000       0.00000000       0.12500000 </v>
   <v name="shift">      0.50000000       0.50000000       0.50000000 </v>
  </generation>
  <varray name="kpointlist" >
   <v>       0.06250000       0.06250000       0.06250000 </v>
   <v>       0.18750000       0.06250000       0.06250000 </v>
   <v>       0.31250000       0.06250000       0.06250000 </v>
   <v>       0.43750000       0.06250000       0.06250000 </v>
   <v>      -0.43750000       0.06250000       0.06250000 </v>
   <v>      -0.31250000       0.06250000       0.06250000 </v>
   <v>      -0.18750000       0.06250000       0.06250000 </v>
   <v>      -0.06250000       0.06250000       0.06250000 </v>
   <v>       0.18750000       0.18750000       0.06250000 </v>
   <v>       0.31250000       0.18750000       0.06250000 </v>
   <v>       0.43750000       0.18750000       0.06250000 </v>
   <v>      -0.43750000       0.18750000       0.06250000 </v>
   <v>      -0.31250000       0.18750000       0.06250000 </v>
   <v>      -0.18750000       0.18750000       0.06250000 </v>
   <v>       0.31250000       0.31250000       0.06250000 </v>
   <v>       0.43750000       0.31250000       0.06250000 </v>
   <v>      -0.43750000       0.31250000       0.06250000 </v>
   <v>      -0.31250000       0.31250000       0.06250000 </v>
   <v>       0.43750000       0.43750000       0.06250000 </v>
   <v>      -0.43750000       0.43750000       0.06250000 </v>
   <v>       0.06250000       0.06250000       0.18750000 </v>
   <v>       0.18750000       0.06250000       0.18750000 </v>
   <v>       0.31250000       0.06250000       0.18750000 </v>
   <v>       0.43750000       0.06250000       0.18750000 </v>
   <v>      -0.43750000       0.06250000       0.18750000 </v>
   <v>      -0.31250000       0.06250000       0.18750000 </v>
   <v>      -0.18750000       0.06250000       0.18750000 </v>
   <v>      -0.06250000       0.06250000       0.18750000 </v>
   <v>       0.18750000       0.18750000       0.18750000 </v>
   <v>       0.31250000       0.18750000       0.18750000 </v>
   <v>       0.43750000       0.18750000       0.18750000 </v>
   <v>      -0.43750000       0.18750000       0.18750000 </v>
   <v>      -0.31250000       0.18750000       0.18750000 </v>
   <v>      -0.18750000       0.18750000       0.18750000 </v>
   <v>       0.31250000       0.31250000       0.18750000 </v>
   <v>       0.43750000       0.31250000       0.18750000 </v>
   <v>      -0.43750000       0.31250000       0.18750000 </v>
   <v>      -0.31250000       0.31250000       0.18750000 </v>
   <v>       0.43750000       0.43750000       0.18750000 </v>
   <v>      -0.43750000       0.43750000       0.18750000 </v>
   <v>       0.06250000       0.06250000       0.31250000 </v>
   <v>       0.18750000       0.06250000       0.31250000 </v>
   <v>       0.31250000       0.06250000       0.31250000 </v>
   <v>       0.43750000       0.06250000       0.31250000 </v>
   <v>      -0.43750000       0.06250000       0.31250000 </v>
   <v>      -0.31250000       0.06250000       0.31250000 </v>
   <v>      -0.18750000       0.06250000       0.31250000 </v>
   <v>      -0.06250000       0.06250000       0.31250000 </v>
   <v>       0.18750000       0.18750000       0.31250000 </v>
   <v>       0.31250000       0.18750000       0.31250000 </v>
   <v>       0.43750000       0.18750000       0.31250000 </v>
   <v>      -0.43750000       0.18750000       0.31250000 </v>
   <v>      -0.31250000       0.18750000       0.31250000 </v>
   <v>      -0.18750000       0.18750000       0.31250000 </v>
   <v>       0.31250000       0.31250000       0.31250000 </v>
   <v>       0.43750000       0.31250000       0.31250000 </v>
   <v>      -0.43750000       0.31250000       0.31250000 </v>
   <v>      -0.31250000       0.31250000       0.31250000 </v>
   <v>       0.43750000       0.43750000       0.31250000 </v>
   <v>      -0.43750000       0.43750000       0.31250000 </v>
   <v>       0.06250000       0.06250000       0.43750000 </v>
   <v>       0.18750000       0.06250000       0.43750000 </v>
   <v>       0.31250000       0.06250000       0.43750000 </v>
   <v>       0.43750000       0.06250000       0.43750000 </v>
   <v>      -0.43750000       0.06250000       0.43750000 </v>
   <v>      -0.31250000       0.06250000       0.43750000 </v>
   <v>      -0.18750000       0.06250000       0.43750000 </v>
   <v>      -0.06250000       0.06250000       0.43750000 </v>
   <v>       0.18750000       0.18750000       0.43750000 </v>
   <v>       0.31250000       0.18750000       0.43750000 </v>
   <v>       0.43750000       0.18750000       0.43750000 </v>
   <v>      -0.43750000       0.18750000       0.43750000 </v>
   <v>      -0.31250000       0.18750000       0.43750000 </v>
   <v>      -0.18750000       0.18750000       0.43750000 </v>
   <v>       0.31250000       0.31250000       0.43750000 </v>
   <v>       0.43750000       0.31250000       0.43750000 </v>
   <v>      -0.43750000       0.31250000       0.43750000 </v>
   <v>      -0.31250000       0.31250000       0.43750000 </v>
   <v>       0.43750000       0.43750000       0.43750000 </v>
   <v>      -0.43750000       0.43750000       0.43750000 </v>
  </varray>
  <varray name="weights" >
   <v>       0.00781250 </v>
   <v>       0.01562500 </v>
   <v>       0.01562500 </v>
   <v>       0.01562500 </v>
   <v>       0.01562500 </v>
   <v>       0.01562500 </v>
   <v>       0.01562500 </v>
   <v>       0.00781250 </v>
   <v>       0.00781250 </v>
   <v>       0.01562500 </v>
   <v>       0.01562500 </v>
   <v>       0.01562500 </v>
   <v>       0.01562500 </v>
   <v>       0.00781250 </v>
   <v>       0.00781250 </v>
   <v>       0.01562500 </v>
   <v>       0.01562500 </v>
   <v>       0.00781250 </v>
   <v>       0.00781250 </v>
   <v>       0.00781250 </v>
   <v>       0.00781250 </v>
   <v>       0.01562500 </v>
   <v>       0.01562500 </v>
   <v>       0.01562500 </v>
   <v>       0.01562500 </v>
   <v>       0.01562500 </v>
   <v>       0.01562500 </v>
   <v>       0.00781250 </v>
   <v>       0.00781250 </v>
   <v>       0.01562500 </v>
   <v>       0.01562500 </v>
   <v>       0.01562500 </v>
   <v>       0.01562500 </v>
   <v>       0.00781250 </v>
   <v>       0.00781250 </v>
   <v>       0.01562500 </v>
   <v>       0.01562500 </v>
   <v>       0.00781250 </v>
   <v>       0.00781250 </v>
   <v>       0.00781250 </v>
   <v>       0.00781250 </v>
   <v>       0.01562500 </v>
   <v>       0.01562500 </v>
   <v>       0.01562500 </v>
   <v>       0.01562500 </v>
   <v>       0.01562500 </v>
   <v>       0.01562500 </v>
   <v>       0.00781250 </v>
   <v>       0.00781250 </v>
   <v>       0.01562500 </v>
   <v>       0.01562500 </v>
   <v>       0.01562500 </v>
   <v>       0.01562500 </v>
   <v>       0.00781250 </v>
   <v>       0.00781250 </v>
   <v>       0.01562500 </v>
   <v>       0.01562500 </v>
   <v>       0.00781250 </v>
   <v>       0.00781250 </v>
   <v>       0.00781250 </v>
   <v>       0.00781250 </v>
   <v>       0.01562500 </v>
   <v>       0.01562500 </v>
   <v>       0.01562500 </v>
   <v>       0.01562500 </v>
   <v>       0.01562500 </v>
   <v>       0.01562500 </v>
   <v>       0.00781250 </v>
   <v>       0.00781250 </v>
   <v>       0.01562500 </v>
   <v>       0.01562500 </v>
   <v>       0.01562500 </v>
   <v>       0.01562500 </v>
   <v>       0.00781250 </v>
   <v>       0.00781250 </v>
   <v>       0.01562500 </v>
   <v>       0.01562500 </v>
   <v>       0.00781250 </v>
   <v>       0.00781250 </v>
   <v>       0.00781250 </v>
  </varray>
 </kpoints>
 <parameters>
  <separator name="general" >
   <i type="string" name="SYSTEM">unknown system</i>
   <i type="logical" name="LCOMPAT"> F  </i>
  </separator>
  <separator name="electronic" >
   <i type="string" name="PREC">normal</i>
   <i name="ENMAX">    750.00000000</i>
   <i name="ENAUG">    644.87300000</i>
   <i name="EDIFF">      0.00010000</i>
   <i type="int" name="IALGO">    38</i>
   <i type="int" name="IWAVPR">    11</i>
   <i type="int" name="NBANDS">    12</i>
   <i name="NELECT">     16.00000000</i>
   <i type="int" name="TURBO">     0</i>
   <i type="int" name="IRESTART">     0</i>
   <i type="int" name="NREBOOT">     0</i>
   <i type="int" name="NMIN">     0</i>
   <i name="EREF">      0.00000000</i>
   <separator name="electronic smearing" >
    <i type="int" name="ISMEAR">     1</i>
    <i name="SIGMA">      0.05000000</i>
    <i name="KSPACING">      0.50000000</i>
    <i type="logical" name="KGAMMA"> T  </i>
   </separator>
   <separator name="electronic projectors" >
    <i type="logical" name="LREAL"> F  </i>
    <v name="ROPT">      0.00000000</v>
    <i type="int" name="LMAXPAW">  -100</i>
    <i type="int" name="LMAXMIX">     2</i>
    <i type="logical" name="NLSPLINE"> F  </i>
   </separator>
   <separator name="electronic startup" >
    <i type="int" name="ISTART">     0</i>
    <i type="int" name="ICHARG">     2</i>
    <i type="int" name="INIWAV">     1</i>
   </separator>
   <separator name="electronic spin" >
    <i type="int" name="ISPIN">     1</i>
    <i type="logical" name="LNONCOLLINEAR"> F  </i>
    <v name="MAGMOM">      1.00000000      1.00000000      1.00000000      1.00000000</v>
    <i name="NUPDOWN">     -1.00000000</i>
    <i type="logical" name="LSORBIT"> F  </i>
    <v name="SAXIS">      0.00000000      0.00000000      1.00000000</v>
    <i type="logical" name="LSPIRAL"> F  </i>
    <v name="QSPIRAL">      0.00000000      0.00000000      0.00000000</v>
    <i type="logical" name="LZEROZ"> F  </i>
   </separator>
   <separator name="electronic exchange-correlation" >
    <i type="logical" name="LASPH"> F  </i>
    <i type="logical" name="LMETAGGA"> F  </i>
   </separator>
   <separator name="electronic convergence" >
    <i type="int" name="NELM">    60</i>
    <i type="int" name="NELMDL">    -5</i>
    <i type="int" name="NELMIN">     2</i>
    <i name="ENINI">    750.00000000</i>
    <separator name="electronic convergence detail" >
     <i type="logical" name="LDIAG"> T  </i>
     <i type="logical" name="LSUBROT"> T  </i>
     <i name="WEIMIN">      0.00100000</i>
     <i name="EBREAK">      0.00000208</i>
     <i name="DEPER">      0.30000000</i>
     <i type="int" name="NRMM">     4</i>
     <i name="TIME">      0.40000000</i>
    </separator>
   </separator>
   <separator name="electronic mixer" >
    <i name="AMIX">      0.40000000</i>
    <i name="BMIX">      1.00000000</i>
    <i name="AMIN">      0.10000000</i>
    <i name="AMIX_MAG">      1.60000000</i>
    <i name="BMIX_MAG">      1.00000000</i>
    <separator name="electronic mixer details" >
     <i type="int" name="IMIX">     4</i>
     <i type="int" name="MAXMIX">   -45</i>
     <i name="WC">    100.00000000</i>
     <i type="int" name="INIMIX">     1</i>
     <i type="int" name="MIXPRE">     1</i>
     <i type="int" name="MREMOVE">     5</i>
    </separator>
   </separator>
   <separator name="electronic dipolcorrection" >
    <i type="logical" name="LDIPOL"> F  </i>
    <i type="logical" name="LMONO"> F  </i>
    <i type="int" name="IDIPOL">     0</i>
    <i name="EPSILON">      1.00000000</i>
    <v name="DIPOL">   -100.00000000   -100.00000000   -100.00000000</v>
    <i name="EFIELD">      0.00000000</i>
   </separator>
  </separator>
  <separator name="grids" >
   <i type="int" name="NGX">    16</i>
   <i type="int" name="NGY">    16</i>
   <i type="int" name="NGZ">    48</i>
   <i type="int" name="NGXF">    32</i>
   <i type="int" name="NGYF">    32</i>
   <i type="int" name="NGZF">    96</i>
   <i type="logical" name="ADDGRID"> F  </i>
  </separator>
  <separator name="ionic" >
   <i type="int" name="NSW">    50</i>
   <i type="int" name="IBRION">     1</i>
   <i type="int" name="ISIF">     4</i>
   <i name="PSTRESS">      0.00000000</i>
   <i name="EDIFFG">      0.00100000</i>
   <i type="int" name="NFREE">     0</i>
   <i name="POTIM">      0.50000000</i>
   <i name="SMASS">     -3.00000000</i>
   <i name="SCALEE">      1.00000000</i>
  </separator>
  <separator name="ionic md" >
   <i name="TEBEG">      0.00010000</i>
   <i name="TEEND">      0.00010000</i>
   <i type="int" name="NBLOCK">     1</i>
   <i type="int" name="KBLOCK">    50</i>
   <i type="int" name="NPACO">   256</i>
   <i name="APACO">     16.00000000</i>
  </separator>
  <separator name="symmetry" >
   <i type="int" name="ISYM">     2</i>
   <i name="SYMPREC">      0.00001000</i>
  </separator>
  <separator name="dos" >
   <i type="logical" name="LORBIT"> F  </i>
   <v name="RWIGS">     -1.00000000</v>
   <i type="int" name="NEDOS">   301</i>
   <i name="EMIN">     10.00000000</i>
   <i name="EMAX">    -10.00000000</i>
   <i name="EFERMI">      0.00000000</i>
  </separator>
  <separator name="writing" >
   <i type="int" name="NWRITE">     2</i>
   <i type="logical" name="LWAVE"> T  </i>
   <i type="logical" name="LCHARG"> T  </i>
   <i type="logical" name="LPARD"> F  </i>
   <i type="logical" name="LVTOT"> F  </i>
   <i type="logical" name="LVHAR"> F  </i>
   <i type="logical" name="LELF"> F  </i>
   <i type="logical" name="LOPTICS"> F  </i>
   <v name="STM">      0.00000000      0.00000000      0.00000000      0.00000000      0.00000000      0.00000000      0.00000000</v>
  </separator>
  <separator name="performance" >
   <i type="int" name="NPAR">     1</i>
   <i type="int" name="NSIM">     4</i>
   <i type="int" name="NBLK">    -1</i>
   <i type="logical" name="LPLANE"> T  </i>
   <i type="logical" name="LSCALAPACK"> F  </i>
   <i type="logical" name="LSCAAWARE"> F  </i>
   <i type="logical" name="LSCALU"> F  </i>
   <i type="logical" name="LASYNC"> F  </i>
   <i type="logical" name="LORBITALREAL"> F  </i>
  </separator>
  <separator name="miscellaneous" >
   <i type="int" name="IDIOT">     3</i>
   <i type="logical" name="LMUSIC"> F  </i>
   <v name="POMASS">     12.01100000</v>
   <v name="DARWINR">      0.00000000</v>
   <v name="DARWINV">      1.00000000</v>
   <i type="logical" name="LCORR"> T  </i>
  </separator>
  <i type="logical" name="GGA_COMPAT"> T  </i>
  <i type="logical" name="LBERRY"> F  </i>
  <i type="int" name="ICORELEVEL">     0</i>
  <i type="logical" name="LDAU"> F  </i>
  <i type="int" name="I_CONSTRAINED_M">     0</i>
  <separator name="electronic exchange-correlation" >
   <i type="string" name="GGA">--</i>
   <i type="int" name="VOSKOWN">     0</i>
   <i type="logical" name="LHFCALC"> F  </i>
   <i type="string" name="PRECFOCK"></i>
   <i type="logical" name="LHFONE"> F  </i>
   <i type="logical" name="LRHFCALC"> F  </i>
   <i type="logical" name="LTHOMAS"> F  </i>
   <i type="logical" name="LMODELHF"> F  </i>
   <i name="ENCUT4O">     -1.00000000</i>
   <i type="int" name="EXXOEP">     0</i>
   <i type="int" name="FOURORBIT">     0</i>
   <i name="AEXX">      0.00000000</i>
   <i name="HFALPHA">      0.00000000</i>
   <i name="ALDAX">      1.00000000</i>
   <i name="AGGAX">      1.00000000</i>
   <i name="ALDAC">      1.00000000</i>
   <i name="AGGAC">      1.00000000</i>
   <i type="int" name="NKREDX">     1</i>
   <i type="int" name="NKREDY">     1</i>
   <i type="int" name="NKREDZ">     1</i>
   <i type="logical" name="SHIFTRED"> F  </i>
   <i type="logical" name="ODDONLY"> F  </i>
   <i type="logical" name="EVENONLY"> F  </i>
   <i type="int" name="LMAXFOCK">     0</i>
   <i type="int" name="NMAXFOCKAE">     0</i>
   <i type="logical" name="LFOCKAEDFT"> F  </i>
   <i name="HFSCREEN">      0.00000000</i>
   <i name="HFSCREENC">      0.00000000</i>
  </separator>
  <separator name="vdW DFT" >
   <i type="logical" name="LUSE_VDW"> F  </i>
   <i name="Zab_VDW">     -0.84910000</i>
   <i name="PARAM1">      0.12340000</i>
   <i name="PARAM2">      1.00000000</i>
   <i name="PARAM3">      0.00000000</i>
  </separator>
  <separator name="model GW" >
   <i type="int" name="MODEL_GW">     0</i>
   <i name="MODEL_EPS0">      5.27839982</i>
   <i name="MODEL_ALPHA">      1.00000000</i>
  </separator>
  <separator name="linear response parameters" >
   <i type="logical" name="LEPSILON"> F  </i>
   <i type="logical" name="LRPA"> F  </i>
   <i type="logical" name="LNABLA"> F  </i>
   <i type="logical" name="LVEL"> F  </i>
   <i type="int" name="KINTER">     0</i>
   <i name="CSHIFT">      0.10000000</i>
   <i name="OMEGAMAX">     -1.00000000</i>
  </separator>
  <separator name="orbital magnetization" >
   <i type="logical" name="NUCIND"> F  </i>
   <v name="MAGPOS">      0.00000000      0.00000000      0.00000000</v>
   <i type="logical" name="LNICSALL"> T  </i>
   <i type="logical" name="ORBITALMAG"> F  </i>
   <i type="logical" name="LMAGBLOCH"> F  </i>
   <i type="logical" name="LCHIMAG"> F  </i>
   <i type="logical" name="LGAUGE"> T  </i>
   <i type="int" name="MAGATOM">     0</i>
   <v name="MAGDIPOL">      0.00000000      0.00000000      0.00000000</v>
   <v name="AVECCONST">      0.00000000      0.00000000      0.00000000</v>
  </separator>
  <separator name="response functions" >
   <i type="logical" name="LADDER"> F  </i>
   <i type="logical" name="LHARTREE"> T  </i>
   <i type="int" name="IBSE">     0</i>
   <i type="logical" name="LTCTE"> F  </i>
   <i type="logical" name="LTETE"> F  </i>
   <i type="logical" name="LFXCEPS"> F  </i>
   <i type="logical" name="L2ORDER"> F  </i>
   <i type="logical" name="LUSEW"> F  </i>
   <i name="ENCUTGW">     -2.00000000</i>
   <i name="ENCUTGWSOFT">     -2.00000000</i>
   <i name="ENCUTLF">     -1.00000000</i>
   <i type="int" name="LMAXMP2">    -1</i>
   <i name="SCISSOR">      0.00000000</i>
   <i type="int" name="NOMEGA">     0</i>
   <i type="int" name="NOMEGAR">     0</i>
   <i type="int" name="NBANDSGW">    -1</i>
   <i type="int" name="NBANDSO">    -1</i>
   <i type="int" name="NBANDSV">    -1</i>
   <i name="OPTEMAX">      0.00000000</i>
   <i type="int" name="NELM">     1</i>
   <i type="int" name="DIM">     3</i>
   <i type="int" name="ANTIRES">     0</i>
   <i name="OMEGAMAX">    -30.00000000</i>
   <i name="OMEGATL">   -200.00000000</i>
   <i type="int" name="OMEGAGRID">     0</i>
   <i name="CSHIFT">     -0.10000000</i>
   <i type="logical" name="SELFENERGY"> F  </i>
   <i type="logical" name="LSPECTRAL"> F  </i>
   <i type="logical" name="ODDONLYGW"> F  </i>
   <i type="logical" name="EVENONLYGW"> F  </i>
   <i type="int" name="NKREDLFX">     1</i>
   <i type="int" name="NKREDLFY">     1</i>
   <i type="int" name="NKREDLFZ">     1</i>
   <i type="int" name="MAXMEM">  1800</i>
   <i type="int" name="TELESCOPE">     0</i>
  </separator>
 </parameters>
 <atominfo>
  <atoms>       4 </atoms>
  <types>       1 </types>
  <array name="atoms" >
   <dimension dim="1">ion</dimension>
   <field type="string">element</field>
   <field type="int">atomtype</field>
   <set>
    <rc><c>C </c><c>   1</c></rc>
    <rc><c>C </c><c>   1</c></rc>
    <rc><c>C </c><c>   1</c></rc>
    <rc><c>C </c><c>   1</c></rc>
   </set>
  </array>
  <array name="atomtypes" >
   <dimension dim="1">type</dimension>
   <field type="int">atomspertype</field>
   <field type="string">element</field>
   <field>mass</field>
   <field>valence</field>
   <field type="string">pseudopotential</field>
   <set>
    <rc><c>   4</c><c>C </c><c>     12.01100000</c><c>      4.00000000</c><c> PAW_PBE C 08Apr2002                    </c></rc>
   </set>
  </array>
 </atominfo>
 <structure name="initialpos" >
  <crystal>
   <varray name="basis" >
    <v>       2.46120000       0.00000000       0.00000000 </v>
    <v>      -1.23060000       2.13146172       0.00000000 </v>
    <v>       0.00000000       0.00000000       6.70790000 </v>
   </varray>
   <i name="volume">     35.18933212 </i>
   <varray name="rec_basis" >
    <v>       0.40630587       0.23458080       0.00000000 </v>
    <v>       0.00000000       0.46916160       0.00000000 </v>
    <v>       0.00000000       0.00000000       0.14907795 </v>
   </varray>
  </crystal>
  <varray name="positions" >
   <v>       0.00000000       0.00000000       0.00000000 </v>
   <v>       0.33333333       0.66666667       0.00000000 </v>
   <v>       0.33333333       0.66666667       0.50000000 </v>
   <v>       0.66666667       0.33333333       0.50000000 </v>
  </varray>
 </structure>
 <calculation>
  <scstep>
   <time name="dav">    5.94    5.95</time>
   <time name="total">    6.10    6.11</time>
   <energy>
    <i name="alphaZ">     37.04766603 </i>
    <i name="ewald">   -460.60042082 </i>
    <i name="hartreedc">   -148.78490797 </i>
    <i name="XCdc">     55.44060450 </i>
    <i name="pawpsdc">    151.32577238 </i>
    <i name="pawaedc">   -155.92769107 </i>
    <i name="eentropy">      0.00008183 </i>
    <i name="bandstr">     -3.22712523 </i>
    <i name="atom">    588.61522034 </i>
    <i name="e_fr_energy">     63.88920000 </i>
    <i name="e_wo_entrp">     63.88911817 </i>
    <i name="e_0_energy">     63.88917272 </i>
   </energy>
  </scstep>
  <scstep>
   <time name="dav">    7.86    7.86</time>
   <time name="total">    7.86    7.87</time>
   <energy>
    <i name="e_fr_energy">    -34.65623871 </i>
    <i name="e_wo_entrp">    -34.65628290 </i>
    <i name="e_0_energy">    -34.65625344 </i>
   </energy>
  </scstep>
  <scstep>
   <time name="dav">    7.17    7.18</time>
   <time name="total">    7.18    7.20</time>
   <energy>
    <i name="e_fr_energy">    -39.21235735 </i>
    <i name="e_wo_entrp">    -39.21240600 </i>
    <i name="e_0_energy">    -39.21237356 </i>
   </energy>
  </scstep>
  <scstep>
   <time name="dav">    6.91    6.92</time>
   <time name="total">    6.92    6.93</time>
   <energy>
    <i name="e_fr_energy">    -39.26798336 </i>
    <i name="e_wo_entrp">    -39.26802852 </i>
    <i name="e_0_energy">    -39.26799841 </i>
   </energy>
  </scstep>
  <scstep>
   <time name="dav">    7.20    7.20</time>
   <time name="total">    7.70    7.72</time>
   <energy>
    <i name="e_fr_energy">    -39.26922178 </i>
    <i name="e_wo_entrp">    -39.26926672 </i>
    <i name="e_0_energy">    -39.26923676 </i>
   </energy>
  </scstep>
  <scstep>
   <time name="dav">    6.67    6.67</time>
   <time name="total">    7.31    7.32</time>
   <energy>
    <i name="e_fr_energy">    -37.43150177 </i>
    <i name="e_wo_entrp">    -37.43154324 </i>
    <i name="e_0_energy">    -37.43151559 </i>
   </energy>
  </scstep>
  <scstep>
   <time name="dav">    6.74    6.74</time>
   <time name="total">    7.38    7.53</time>
   <energy>
    <i name="e_fr_energy">    -36.84909350 </i>
    <i name="e_wo_entrp">    -36.84913194 </i>
    <i name="e_0_energy">    -36.84910632 </i>
   </energy>
  </scstep>
  <scstep>
   <time name="dav">    6.58    6.58</time>
   <time name="total">    7.22    7.23</time>
   <energy>
    <i name="e_fr_energy">    -36.85727951 </i>
    <i name="e_wo_entrp">    -36.85731820 </i>
    <i name="e_0_energy">    -36.85729241 </i>
   </energy>
  </scstep>
  <scstep>
   <time name="dav">    7.13    7.13</time>
   <time name="total">    7.77    7.86</time>
   <energy>
    <i name="e_fr_energy">    -36.85741986 </i>
    <i name="e_wo_entrp">    -36.85745852 </i>
    <i name="e_0_energy">    -36.85743275 </i>
   </energy>
  </scstep>
  <scstep>
   <time name="dav">    6.58    6.58</time>
   <time name="total">    7.21    7.23</time>
   <energy>
    <i name="e_fr_energy">    -36.85755167 </i>
    <i name="e_wo_entrp">    -36.85759034 </i>
    <i name="e_0_energy">    -36.85756456 </i>
   </energy>
  </scstep>
  <scstep>
   <time name="dav">    5.21    5.21</time>
   <time name="total">    5.36    5.38</time>
   <energy>
    <i name="alphaZ">     37.04766603 </i>
    <i name="ewald">   -460.60042082 </i>
    <i name="hartreedc">   -183.85738278 </i>
    <i name="XCdc">     57.71459534 </i>
    <i name="pawpsdc">    279.42370004 </i>
    <i name="pawaedc">   -284.58406797 </i>
    <i name="eentropy">      0.00003867 </i>
    <i name="bandstr">    -70.61690183 </i>
    <i name="atom">    588.61522034 </i>
    <i name="e_fr_energy">    -36.85755297 </i>
    <i name="e_wo_entrp">    -36.85759164 </i>
    <i name="e_0_energy">    -36.85756586 </i>
   </energy>
  </scstep>
  <parameters_embedded>
   <separator name="dft+d2" >
    <i type="logical" name="LVDW"> F  </i>
   </separator>
  </parameters_embedded>
  <structure>
   <crystal>
    <varray name="basis" >
     <v>       2.46120000       0.00000000       0.00000000 </v>
     <v>      -1.23060000       2.13146172       0.00000000 </v>
     <v>       0.00000000       0.00000000       6.70790000 </v>
    </varray>
    <i name="volume">     35.18933212 </i>
    <varray name="rec_basis" >
     <v>       0.40630587       0.23458080       0.00000000 </v>
     <v>       0.00000000       0.46916160       0.00000000 </v>
     <v>       0.00000000       0.00000000       0.14907795 </v>
    </varray>
   </crystal>
   <varray name="positions" >
    <v>       0.00000000       0.00000000       0.00000000 </v>
    <v>       0.33333333       0.66666667       0.00000000 </v>
    <v>       0.33333333       0.66666667       0.50000000 </v>
    <v>       0.66666667       0.33333333       0.50000000 </v>
   </varray>
  </structure>
  <varray name="forces" >
   <v>       0.00000000       0.00000000       0.00000000 </v>
   <v>       0.00000000       0.00000000       0.00000000 </v>
   <v>       0.00000000       0.00000000       0.00000000 </v>
   <v>       0.00000000       0.00000000       0.00000000 </v>
  </varray>
  <varray name="stress" >
   <v>      24.30905662       0.00000000       0.00000000 </v>
   <v>       0.00000000      24.30905662       0.00000000 </v>
   <v>       0.00000000       0.00000000      34.55701608 </v>
  </varray>
  <energy>
   <i name="e_fr_energy">    -36.85755297 </i>
   <i name="e_wo_entrp">    -36.85756586 </i>
   <i name="e_0_energy">      0.00003867 </i>
  </energy>
  <time name="totalsc">   82.56   83.08</time>
 </calculation>
 <calculation>
  <scstep>
   <time name="dav">    6.04    6.04</time>
   <time name="total">    6.68    6.68</time>
   <energy>
    <i name="alphaZ">     37.04766603 </i>
    <i name="ewald">   -459.33845353 </i>
    <i name="hartreedc">   -184.40888041 </i>
    <i name="XCdc">     57.71611021 </i>
    <i name="pawpsdc">    279.42298889 </i>
    <i name="pawaedc">   -284.58331194 </i>
    <i name="eentropy">      0.00003884 </i>
    <i name="bandstr">    -71.32969853 </i>
    <i name="atom">    588.61522034 </i>
    <i name="e_fr_energy">    -36.85832011 </i>
    <i name="e_wo_entrp">    -36.85835895 </i>
    <i name="e_0_energy">    -36.85833306 </i>
   </energy>
  </scstep>
  <scstep>
   <time name="dav">    6.89    6.89</time>
   <time name="total">    7.52    7.53</time>
   <energy>
    <i name="e_fr_energy">    -36.85790040 </i>
    <i name="e_wo_entrp">    -36.85793920 </i>
    <i name="e_0_energy">    -36.85791333 </i>
   </energy>
  </scstep>
  <scstep>
   <time name="dav">    6.99    6.99</time>
   <time name="total">    7.63    7.64</time>
   <energy>
    <i name="e_fr_energy">    -36.85770429 </i>
    <i name="e_wo_entrp">    -36.85774304 </i>
    <i name="e_0_energy">    -36.85771721 </i>
   </energy>
  </scstep>
  <scstep>
   <time name="dav">    4.73    4.73</time>
   <time name="total">    4.88    5.40</time>
   <energy>
    <i name="alphaZ">     37.04766603 </i>
    <i name="ewald">   -459.33845353 </i>
    <i name="hartreedc">   -185.00199378 </i>
    <i name="XCdc">     57.74759874 </i>
    <i name="pawpsdc">    280.23916810 </i>
    <i name="pawaedc">   -285.40416718 </i>
    <i name="eentropy">      0.00003876 </i>
    <i name="bandstr">    -70.76278076 </i>
    <i name="atom">    588.61522034 </i>
    <i name="e_fr_energy">    -36.85770328 </i>
    <i name="e_wo_entrp">    -36.85774204 </i>
    <i name="e_0_energy">    -36.85771620 </i>
   </energy>
  </scstep>
  <structure>
   <crystal>
    <varray name="basis" >
     <v>       2.45897494       0.00000000       0.00000000 </v>
     <v>      -1.22948747       2.12953476       0.00000000 </v>
     <v>       0.00000000       0.00000000       6.72004510 </v>
    </varray>
    <i name="volume">     35.18933212 </i>
    <varray name="rec_basis" >
     <v>       0.40667352       0.23479307       0.00000000 </v>
     <v>       0.00000000       0.46958614       0.00000000 </v>
     <v>       0.00000000       0.00000000       0.14880853 </v>
    </varray>
   </crystal>
   <varray name="positions" >
    <v>       0.00000000       0.00000000       0.00000000 </v>
    <v>       0.33333333       0.66666667       0.00000000 </v>
    <v>       0.33333333       0.66666667       0.50000000 </v>
    <v>       0.66666667       0.33333333       0.50000000 </v>
   </varray>
  </structure>
  <varray name="forces" >
   <v>       0.00000000       0.00000000       0.00000000 </v>
   <v>       0.00000000       0.00000000       0.00000000 </v>
   <v>       0.00000000       0.00000000       0.00000000 </v>
   <v>       0.00000000       0.00000000       0.00000000 </v>
  </varray>
  <varray name="stress" >
   <v>      35.45744313       0.00000000       0.00000000 </v>
   <v>       0.00000000      35.45744313       0.00000000 </v>
   <v>       0.00000000       0.00000000      32.68071968 </v>
  </varray>
  <energy>
   <i name="e_fr_energy">    -36.85770328 </i>
   <i name="e_wo_entrp">    -36.85771620 </i>
   <i name="e_0_energy">      0.00003876 </i>
  </energy>
  <time name="totalsc">   30.81   31.67</time>
  <eigenvalues>
   <array>
    <dimension dim="1">band</dimension>
    <dimension dim="2">kpoint</dimension>
    <dimension dim="3">spin</dimension>
    <field>eigene</field>
    <field>occ</field>
    <set>
     <set comment="spin 1">
      <set comment="kpoint 1">
       <r>  -14.6984    1.0000 </r>
       <r>  -14.4135    1.0000 </r>
       <r>   -3.4785    1.0000 </r>
       <r>   -1.5941    1.0000 </r>
       <r>    0.6843    1.0000 </r>
       <r>    0.7102    1.0000 </r>
       <r>    1.1221    1.0000 </r>
       <r>    1.1425    1.0000 </r>
       <r>    9.3594    0.0000 </r>
       <r>   13.2800    0.0000 </r>
       <r>   13.3711    0.0000 </r>
       <r>   14.1440    0.0000 </r>
      </set>
      <set comment="kpoint 2">
       <r>  -13.7696    1.0000 </r>
       <r>  -13.5009    1.0000 </r>
       <r>   -2.3582    1.0000 </r>
       <r>   -1.9365    1.0000 </r>
       <r>   -1.8598    1.0000 </r>
       <r>   -0.5538    1.0000 </r>
       <r>   -0.2649    1.0000 </r>
       <r>   -0.2195    1.0000 </r>
       <r>   10.4922    0.0000 </r>
       <r>   12.4903    0.0000 </r>
       <r>   12.9715    0.0000 </r>
       <r>   13.2514    0.0000 </r>
      </set>
      <set comment="kpoint 3">
       <r>  -12.1278    1.0000 </r>
       <r>  -11.8875    1.0000 </r>
       <r>   -5.2029    1.0000 </r>
       <r>   -5.0727    1.0000 </r>
       <r>   -1.4414    1.0000 </r>
       <r>   -1.3844    1.0000 </r>
       <r>   -0.4297    1.0000 </r>
       <r>    1.1760    1.0000 </r>
       <r>    8.9326    0.0000 </r>
       <r>    9.7899    0.0000 </r>
       <r>   12.4345    0.0000 </r>
       <r>   12.7779    0.0000 </r>
      </set>
      <set comment="kpoint 4">
       <r>   -9.9156    1.0000 </r>
       <r>   -9.7361    1.0000 </r>
       <r>   -8.1829    1.0000 </r>
       <r>   -8.0332    1.0000 </r>
       <r>   -1.9908    1.0000 </r>
       <r>   -1.9302    1.0000 </r>
       <r>    1.8097    1.0000 </r>
       <r>    2.6763    1.0000 </r>
       <r>    6.3299    0.0000 </r>
       <r>    7.0589    0.0000 </r>
       <r>   12.4353    0.0000 </r>
       <r>   12.8268    0.0000 </r>
      </set>
      <set comment="kpoint 5">
       <r>  -11.0648    1.0000 </r>
       <r>  -10.8443    1.0000 </r>
       <r>   -6.7871    1.0000 </r>
       <r>   -6.6349    1.0000 </r>
       <r>   -1.8051    1.0000 </r>
       <r>   -1.7457    1.0000 </r>
       <r>    0.7411    1.0000 </r>
       <r>    2.1158    1.0000 </r>
       <r>    7.3157    0.0000 </r>
       <r>    8.2515    0.0000 </r>
       <r>   12.5337    0.0000 </r>
       <r>   12.8926    0.0000 </r>
      </set>
      <set comment="kpoint 6">
       <r>  -13.0346    1.0000 </r>
       <r>  -12.7785    1.0000 </r>
       <r>   -3.5574    1.0000 </r>
       <r>   -3.4529    1.0000 </r>
       <r>   -1.4838    1.0000 </r>
       <r>   -0.9171    1.0000 </r>
       <r>   -0.8644    1.0000 </r>
       <r>    0.2443    1.0000 </r>
       <r>   10.7289    0.0000 </r>
       <r>   11.3906    0.0000 </r>
       <r>   11.4089    0.0000 </r>
       <r>   13.0030    0.0000 </r>
      </set>
      <set comment="kpoint 7">
       <r>  -14.3256    1.0000 </r>
       <r>  -14.0473    1.0000 </r>
       <r>   -3.0273    1.0000 </r>
       <r>   -1.1732    1.0000 </r>
       <r>   -0.4641    1.0000 </r>
       <r>   -0.4166    1.0000 </r>
       <r>    0.4549    1.0000 </r>
       <r>    0.4879    1.0000 </r>
       <r>    9.8133    0.0000 </r>
       <r>   13.3810    0.0000 </r>
       <r>   13.5352    0.0000 </r>
       <r>   14.0301    0.0000 </r>
      </set>
      <set comment="kpoint 8">
       <r>  -14.8854    1.0000 </r>
       <r>  -14.5971    1.0000 </r>
       <r>   -3.7055    1.0000 </r>
       <r>   -1.8066    1.0000 </r>
       <r>    1.3372    1.0000 </r>
       <r>    1.3637    1.0000 </r>
       <r>    1.5166    1.0000 </r>
       <r>    1.5404    1.0000 </r>
       <r>    9.1330    0.0000 </r>
       <r>   13.1414    0.0000 </r>
       <r>   13.2091    0.0000 </r>
       <r>   13.5164    0.0000 </r>
      </set>
      <set comment="kpoint 9">
       <r>  -12.4897    1.0000 </r>
       <r>  -12.2431    1.0000 </r>
       <r>   -3.7952    1.0000 </r>
       <r>   -3.7373    1.0000 </r>
       <r>   -2.3608    1.0000 </r>
       <r>   -2.3180    1.0000 </r>
       <r>   -0.8362    1.0000 </r>
       <r>    0.8342    1.0000 </r>
       <r>    9.9551    0.0000 </r>
       <r>   10.4555    0.0000 </r>
       <r>   12.0776    0.0000 </r>
       <r>   15.1767    0.0000 </r>
      </set>
      <set comment="kpoint 10">
       <r>  -10.5477    1.0000 </r>
       <r>  -10.3369    1.0000 </r>
       <r>   -6.4424    1.0000 </r>
       <r>   -6.3107    1.0000 </r>
       <r>   -3.6785    1.0000 </r>
       <r>   -3.5899    1.0000 </r>
       <r>    1.3698    1.0000 </r>
       <r>    2.7115    1.0000 </r>
       <r>    7.0569    0.0000 </r>
       <r>    7.7369    0.0000 </r>
       <r>   14.4438    0.0000 </r>
       <r>   15.1646    0.0000 </r>
      </set>
      <set comment="kpoint 11">
       <r>   -9.4250    1.0000 </r>
       <r>   -9.2545    1.0000 </r>
       <r>   -7.7508    1.0000 </r>
       <r>   -7.6149    1.0000 </r>
       <r>   -3.9069    1.0000 </r>
       <r>   -3.8109    1.0000 </r>
       <r>    2.4657    1.0000 </r>
       <r>    3.3335    1.0000 </r>
       <r>    6.1395    0.0000 </r>
       <r>    6.5907    0.0000 </r>
       <r>   15.0302    0.0000 </r>
       <r>   15.5907    0.0000 </r>
      </set>
      <set comment="kpoint 12">
       <r>  -11.5938    1.0000 </r>
       <r>  -11.3629    1.0000 </r>
       <r>   -5.0426    1.0000 </r>
       <r>   -4.9484    1.0000 </r>
       <r>   -3.1871    1.0000 </r>
       <r>   -3.1189    1.0000 </r>
       <r>    0.2048    1.0000 </r>
       <r>    1.7544    1.0000 </r>
       <r>    8.4875    0.0000 </r>
       <r>    9.0773    0.0000 </r>
       <r>   13.1791    0.0000 </r>
       <r>   15.3325    0.0000 </r>
      </set>
      <set comment="kpoint 13">
       <r>  -13.2179    1.0000 </r>
       <r>  -12.9587    1.0000 </r>
       <r>   -2.8130    1.0000 </r>
       <r>   -2.7425    1.0000 </r>
       <r>   -1.6984    1.0000 </r>
       <r>   -1.2759    1.0000 </r>
       <r>   -1.2279    1.0000 </r>
       <r>    0.0522    1.0000 </r>
       <r>   11.1724    0.0000 </r>
       <r>   11.3084    0.0000 </r>
       <r>   11.7921    0.0000 </r>
       <r>   14.1278    0.0000 </r>
      </set>
      <set comment="kpoint 14">
       <r>  -14.1398    1.0000 </r>
       <r>  -13.8647    1.0000 </r>
       <r>   -2.8033    1.0000 </r>
       <r>   -1.1104    1.0000 </r>
       <r>   -1.0404    1.0000 </r>
       <r>   -0.9654    1.0000 </r>
       <r>    0.3399    1.0000 </r>
       <r>    0.3809    1.0000 </r>
       <r>   10.0378    0.0000 </r>
       <r>   12.9969    0.0000 </r>
       <r>   13.2027    0.0000 </r>
       <r>   13.4504    0.0000 </r>
      </set>
      <set comment="kpoint 15">
       <r>   -8.4988    1.0000 </r>
       <r>   -8.3488    1.0000 </r>
       <r>   -7.4664    1.0000 </r>
       <r>   -7.3793    1.0000 </r>
       <r>   -5.7027    1.0000 </r>
       <r>   -5.6616    1.0000 </r>
       <r>    3.6201    1.0000 </r>
       <r>    4.4794    0.9835 </r>
       <r>    5.0604    0.0000 </r>
       <r>    5.7310    0.0000 </r>
       <r>   15.8746    0.0000 </r>
       <r>   15.8792    0.0000 </r>
      </set>
      <set comment="kpoint 16">
       <r>   -9.5502    1.0000 </r>
       <r>   -9.3619    1.0000 </r>
       <r>   -6.9053    1.0000 </r>
       <r>   -6.7940    1.0000 </r>
       <r>   -4.8914    1.0000 </r>
       <r>   -4.8072    1.0000 </r>
       <r>    2.4782    1.0000 </r>
       <r>    3.6150    1.0000 </r>
       <r>    6.0850    0.0000 </r>
       <r>    6.6820    0.0000 </r>
       <r>   15.5816    0.0000 </r>
       <r>   16.2576    0.0000 </r>
      </set>
      <set comment="kpoint 17">
       <r>  -11.4160    1.0000 </r>
       <r>  -11.1885    1.0000 </r>
       <r>   -5.8863    1.0000 </r>
       <r>   -5.7515    1.0000 </r>
       <r>   -2.4436    1.0000 </r>
       <r>   -2.3700    1.0000 </r>
       <r>    0.3874    1.0000 </r>
       <r>    1.8828    1.0000 </r>
       <r>    7.9894    0.0000 </r>
       <r>    8.7893    0.0000 </r>
       <r>   13.3536    0.0000 </r>
       <r>   13.7611    0.0000 </r>
      </set>
      <set comment="kpoint 18">
       <r>  -12.6698    1.0000 </r>
       <r>  -12.4201    1.0000 </r>
       <r>   -4.4084    1.0000 </r>
       <r>   -4.2881    1.0000 </r>
       <r>   -1.0582    1.0000 </r>
       <r>   -0.9009    1.0000 </r>
       <r>   -0.8515    1.0000 </r>
       <r>    0.6230    1.0000 </r>
       <r>    9.8750    0.0000 </r>
       <r>   10.6936    0.0000 </r>
       <r>   11.8020    0.0000 </r>
       <r>   12.4765    0.0000 </r>
      </set>
      <set comment="kpoint 19">
       <r>   -9.3738    1.0000 </r>
       <r>   -9.2683    1.0000 </r>
       <r>   -8.3332    1.0000 </r>
       <r>   -8.2564    1.0000 </r>
       <r>   -2.8330    1.0000 </r>
       <r>   -2.7542    1.0000 </r>
       <r>    2.2916    1.0000 </r>
       <r>    2.9507    1.0000 </r>
       <r>    6.2021    0.0000 </r>
       <r>    6.6661    0.0000 </r>
       <r>   13.5223    0.0000 </r>
       <r>   13.9689    0.0000 </r>
      </set>
      <set comment="kpoint 20">
       <r>  -10.5521    1.0000 </r>
       <r>  -10.3442    1.0000 </r>
       <r>   -7.5811    1.0000 </r>
       <r>   -7.4206    1.0000 </r>
       <r>   -1.6128    1.0000 </r>
       <r>   -1.5603    1.0000 </r>
       <r>    1.2368    1.0000 </r>
       <r>    2.4028    1.0000 </r>
       <r>    6.7115    0.0000 </r>
       <r>    7.6270    0.0000 </r>
       <r>   12.0647    0.0000 </r>
       <r>   12.4361    0.0000 </r>
      </set>
      <set comment="kpoint 21">
       <r>  -14.6779    1.0000 </r>
       <r>  -14.4365    1.0000 </r>
       <r>   -3.3565    1.0000 </r>
       <r>   -1.7679    1.0000 </r>
       <r>    0.6864    1.0000 </r>
       <r>    0.7084    1.0000 </r>
       <r>    1.1235    1.0000 </r>
       <r>    1.1408    1.0000 </r>
       <r>    9.7304    0.0000 </r>
       <r>   13.2776    0.0000 </r>
       <r>   13.3656    0.0000 </r>
       <r>   14.1363    0.0000 </r>
      </set>
      <set comment="kpoint 22">
       <r>  -13.7502    1.0000 </r>
       <r>  -13.5225    1.0000 </r>
       <r>   -2.2409    1.0000 </r>
       <r>   -1.9307    1.0000 </r>
       <r>   -1.8655    1.0000 </r>
       <r>   -0.7187    1.0000 </r>
       <r>   -0.2615    1.0000 </r>
       <r>   -0.2231    1.0000 </r>
       <r>   10.8405    0.0000 </r>
       <r>   12.5246    0.0000 </r>
       <r>   12.9177    0.0000 </r>
       <r>   13.2668    0.0000 </r>
      </set>
      <set comment="kpoint 23">
       <r>  -12.1104    1.0000 </r>
       <r>  -11.9067    1.0000 </r>
       <r>   -5.1932    1.0000 </r>
       <r>   -5.0829    1.0000 </r>
       <r>   -1.4372    1.0000 </r>
       <r>   -1.3888    1.0000 </r>
       <r>   -0.3228    1.0000 </r>
       <r>    1.0334    1.0000 </r>
       <r>    8.9814    0.0000 </r>
       <r>    9.7112    0.0000 </r>
       <r>   12.6490    0.0000 </r>
       <r>   12.8349    0.0000 </r>
      </set>
      <set comment="kpoint 24">
       <r>   -9.9021    1.0000 </r>
       <r>   -9.7499    1.0000 </r>
       <r>   -8.1724    1.0000 </r>
       <r>   -8.0455    1.0000 </r>
       <r>   -1.9863    1.0000 </r>
       <r>   -1.9349    1.0000 </r>
       <r>    1.8831    1.0000 </r>
       <r>    2.6242    1.0000 </r>
       <r>    6.3376    0.0000 </r>
       <r>    6.9634    0.0000 </r>
       <r>   12.4636    0.0000 </r>
       <r>   12.7957    0.0000 </r>
      </set>
      <set comment="kpoint 25">
       <r>  -11.0487    1.0000 </r>
       <r>  -10.8619    1.0000 </r>
       <r>   -6.7759    1.0000 </r>
       <r>   -6.6469    1.0000 </r>
       <r>   -1.8007    1.0000 </r>
       <r>   -1.7502    1.0000 </r>
       <r>    0.8368    1.0000 </r>
       <r>    2.0012    1.0000 </r>
       <r>    7.3619    0.0000 </r>
       <r>    8.1586    0.0000 </r>
       <r>   12.5625    0.0000 </r>
       <r>   12.8679    0.0000 </r>
      </set>
      <set comment="kpoint 26">
       <r>  -13.0161    1.0000 </r>
       <r>  -12.7991    1.0000 </r>
       <r>   -3.5496    1.0000 </r>
       <r>   -3.4610    1.0000 </r>
       <r>   -1.3704    1.0000 </r>
       <r>   -0.9131    1.0000 </r>
       <r>   -0.8685    1.0000 </r>
       <r>    0.0878    1.0000 </r>
       <r>   10.7581    0.0000 </r>
       <r>   11.3455    0.0000 </r>
       <r>   11.7429    0.0000 </r>
       <r>   13.0224    0.0000 </r>
      </set>
      <set comment="kpoint 27">
       <r>  -14.3056    1.0000 </r>
       <r>  -14.0697    1.0000 </r>
       <r>   -2.9070    1.0000 </r>
       <r>   -1.3437    1.0000 </r>
       <r>   -0.4604    1.0000 </r>
       <r>   -0.4201    1.0000 </r>
       <r>    0.4573    1.0000 </r>
       <r>    0.4853    1.0000 </r>
       <r>   10.1771    0.0000 </r>
       <r>   13.3761    0.0000 </r>
       <r>   13.5211    0.0000 </r>
       <r>   14.0616    0.0000 </r>
      </set>
      <set comment="kpoint 28">
       <r>  -14.8647    1.0000 </r>
       <r>  -14.6204    1.0000 </r>
       <r>   -3.5826    1.0000 </r>
       <r>   -1.9820    1.0000 </r>
       <r>    1.3392    1.0000 </r>
       <r>    1.3617    1.0000 </r>
       <r>    1.5184    1.0000 </r>
       <r>    1.5385    1.0000 </r>
       <r>    9.5074    0.0000 </r>
       <r>   13.1430    0.0000 </r>
       <r>   13.2045    0.0000 </r>
       <r>   13.5088    0.0000 </r>
      </set>
      <set comment="kpoint 29">
       <r>  -12.4718    1.0000 </r>
       <r>  -12.2628    1.0000 </r>
       <r>   -3.7906    1.0000 </r>
       <r>   -3.7415    1.0000 </r>
       <r>   -2.3581    1.0000 </r>
       <r>   -2.3218    1.0000 </r>
       <r>   -0.7261    1.0000 </r>
       <r>    0.6840    1.0000 </r>
       <r>    9.9930    0.0000 </r>
       <r>   10.4156    0.0000 </r>
       <r>   12.3934    0.0000 </r>
       <r>   15.1713    0.0000 </r>
      </set>
      <set comment="kpoint 30">
       <r>  -10.5323    1.0000 </r>
       <r>  -10.3536    1.0000 </r>
       <r>   -6.4327    1.0000 </r>
       <r>   -6.3210    1.0000 </r>
       <r>   -3.6721    1.0000 </r>
       <r>   -3.5969    1.0000 </r>
       <r>    1.4630    1.0000 </r>
       <r>    2.5992    1.0000 </r>
       <r>    7.0997    0.0000 </r>
       <r>    7.6784    0.0000 </r>
       <r>   14.6257    0.0000 </r>
       <r>   15.1763    0.0000 </r>
      </set>
      <set comment="kpoint 31">
       <r>   -9.4122    1.0000 </r>
       <r>   -9.2677    1.0000 </r>
       <r>   -7.7413    1.0000 </r>
       <r>   -7.6260    1.0000 </r>
       <r>   -3.8999    1.0000 </r>
       <r>   -3.8185    1.0000 </r>
       <r>    2.5390    1.0000 </r>
       <r>    3.2818    1.0000 </r>
       <r>    6.1412    0.0000 </r>
       <r>    6.5328    0.0000 </r>
       <r>   15.0541    0.0000 </r>
       <r>   15.4880    0.0000 </r>
      </set>
      <set comment="kpoint 32">
       <r>  -11.5770    1.0000 </r>
       <r>  -11.3813    1.0000 </r>
       <r>   -5.0354    1.0000 </r>
       <r>   -4.9556    1.0000 </r>
       <r>   -3.1823    1.0000 </r>
       <r>   -3.1245    1.0000 </r>
       <r>    0.3084    1.0000 </r>
       <r>    1.6177    1.0000 </r>
       <r>    8.5308    0.0000 </r>
       <r>    9.0308    0.0000 </r>
       <r>   13.4511    0.0000 </r>
       <r>   15.3415    0.0000 </r>
      </set>
      <set comment="kpoint 33">
       <r>  -13.1991    1.0000 </r>
       <r>  -12.9795    1.0000 </r>
       <r>   -2.8077    1.0000 </r>
       <r>   -2.7480    1.0000 </r>
       <r>   -1.5839    1.0000 </r>
       <r>   -1.2725    1.0000 </r>
       <r>   -1.2318    1.0000 </r>
       <r>   -0.1069    1.0000 </r>
       <r>   11.3202    0.0000 </r>
       <r>   11.5299    0.0000 </r>
       <r>   11.7560    0.0000 </r>
       <r>   14.1381    0.0000 </r>
      </set>
      <set comment="kpoint 34">
       <r>  -14.1200    1.0000 </r>
       <r>  -13.8869    1.0000 </r>
       <r>   -2.6839    1.0000 </r>
       <r>   -1.1359    1.0000 </r>
       <r>   -1.1032    1.0000 </r>
       <r>   -1.0456    1.0000 </r>
       <r>    0.3431    1.0000 </r>
       <r>    0.3777    1.0000 </r>
       <r>   10.3963    0.0000 </r>
       <r>   12.9972    0.0000 </r>
       <r>   13.1822    0.0000 </r>
       <r>   13.4916    0.0000 </r>
      </set>
      <set comment="kpoint 35">
       <r>   -8.4875    1.0000 </r>
       <r>   -8.3602    1.0000 </r>
       <r>   -7.4598    1.0000 </r>
       <r>   -7.3860    1.0000 </r>
       <r>   -5.7008    1.0000 </r>
       <r>   -5.6659    1.0000 </r>
       <r>    3.6942    1.0000 </r>
       <r>    4.4308    1.0165 </r>
       <r>    5.0993    0.0000 </r>
       <r>    5.6573    0.0000 </r>
       <r>   15.4755    0.0000 </r>
       <r>   15.5490    0.0000 </r>
      </set>
      <set comment="kpoint 36">
       <r>   -9.5363    1.0000 </r>
       <r>   -9.3767    1.0000 </r>
       <r>   -6.8969    1.0000 </r>
       <r>   -6.8026    1.0000 </r>
       <r>   -4.8857    1.0000 </r>
       <r>   -4.8143    1.0000 </r>
       <r>    2.5612    1.0000 </r>
       <r>    3.5266    1.0000 </r>
       <r>    6.1240    0.0000 </r>
       <r>    6.6292    0.0000 </r>
       <r>   15.4252    0.0000 </r>
       <r>   15.9105    0.0000 </r>
      </set>
      <set comment="kpoint 37">
       <r>  -11.3994    1.0000 </r>
       <r>  -11.2066    1.0000 </r>
       <r>   -5.8763    1.0000 </r>
       <r>   -5.7620    1.0000 </r>
       <r>   -2.4381    1.0000 </r>
       <r>   -2.3757    1.0000 </r>
       <r>    0.4885    1.0000 </r>
       <r>    1.7528    1.0000 </r>
       <r>    8.0375    0.0000 </r>
       <r>    8.7184    0.0000 </r>
       <r>   13.5864    0.0000 </r>
       <r>   13.8027    0.0000 </r>
      </set>
      <set comment="kpoint 38">
       <r>  -12.6518    1.0000 </r>
       <r>  -12.4401    1.0000 </r>
       <r>   -4.3995    1.0000 </r>
       <r>   -4.2975    1.0000 </r>
       <r>   -0.9473    1.0000 </r>
       <r>   -0.8972    1.0000 </r>
       <r>   -0.8554    1.0000 </r>
       <r>    0.4718    1.0000 </r>
       <r>    9.9175    0.0000 </r>
       <r>   10.6169    0.0000 </r>
       <r>   12.1062    0.0000 </r>
       <r>   12.5049    0.0000 </r>
      </set>
      <set comment="kpoint 39">
       <r>   -9.3646    1.0000 </r>
       <r>   -9.2748    1.0000 </r>
       <r>   -8.3299    1.0000 </r>
       <r>   -8.2645    1.0000 </r>
       <r>   -2.8271    1.0000 </r>
       <r>   -2.7603    1.0000 </r>
       <r>    2.3557    1.0000 </r>
       <r>    2.9219    1.0000 </r>
       <r>    6.1881    0.0000 </r>
       <r>    6.5912    0.0000 </r>
       <r>   13.5521    0.0000 </r>
       <r>   13.9305    0.0000 </r>
      </set>
      <set comment="kpoint 40">
       <r>  -10.5369    1.0000 </r>
       <r>  -10.3607    1.0000 </r>
       <r>   -7.5694    1.0000 </r>
       <r>   -7.4334    1.0000 </r>
       <r>   -1.6089    1.0000 </r>
       <r>   -1.5643    1.0000 </r>
       <r>    1.3234    1.0000 </r>
       <r>    2.3145    1.0000 </r>
       <r>    6.7441    0.0000 </r>
       <r>    7.5252    0.0000 </r>
       <r>   12.0924    0.0000 </r>
       <r>   12.4073    0.0000 </r>
      </set>
      <set comment="kpoint 41">
       <r>  -14.6396    1.0000 </r>
       <r>  -14.4784    1.0000 </r>
       <r>   -3.1243    1.0000 </r>
       <r>   -2.0710    1.0000 </r>
       <r>    0.6902    1.0000 </r>
       <r>    0.7049    1.0000 </r>
       <r>    1.1262    1.0000 </r>
       <r>    1.1378    1.0000 </r>
       <r>   10.4234    0.0000 </r>
       <r>   13.2335    0.0000 </r>
       <r>   13.3566    0.0000 </r>
       <r>   13.7082    0.0000 </r>
      </set>
      <set comment="kpoint 42">
       <r>  -13.7140    1.0000 </r>
       <r>  -13.5619    1.0000 </r>
       <r>   -2.0184    1.0000 </r>
       <r>   -1.9199    1.0000 </r>
       <r>   -1.8757    1.0000 </r>
       <r>   -1.0073    1.0000 </r>
       <r>   -0.2553    1.0000 </r>
       <r>   -0.2295    1.0000 </r>
       <r>   11.4834    0.0000 </r>
       <r>   12.5940    0.0000 </r>
       <r>   12.8257    0.0000 </r>
       <r>   13.2817    0.0000 </r>
      </set>
      <set comment="kpoint 43">
       <r>  -12.0778    1.0000 </r>
       <r>  -11.9418    1.0000 </r>
       <r>   -5.1754    1.0000 </r>
       <r>   -5.1016    1.0000 </r>
       <r>   -1.4292    1.0000 </r>
       <r>   -1.3969    1.0000 </r>
       <r>   -0.1201    1.0000 </r>
       <r>    0.7815    1.0000 </r>
       <r>    9.0813    0.0000 </r>
       <r>    9.5714    0.0000 </r>
       <r>   12.7840    0.0000 </r>
       <r>   12.9235    0.0000 </r>
      </set>
      <set comment="kpoint 44">
       <r>   -9.8771    1.0000 </r>
       <r>   -9.7755    1.0000 </r>
       <r>   -8.1527    1.0000 </r>
       <r>   -8.0678    1.0000 </r>
       <r>   -1.9778    1.0000 </r>
       <r>   -1.9435    1.0000 </r>
       <r>    2.0175    1.0000 </r>
       <r>    2.5187    1.0000 </r>
       <r>    6.3774    0.0000 </r>
       <r>    6.8027    0.0000 </r>
       <r>   12.5164    0.0000 </r>
       <r>   12.7383    0.0000 </r>
      </set>
      <set comment="kpoint 45">
       <r>  -11.0187    1.0000 </r>
       <r>  -10.8939    1.0000 </r>
       <r>   -6.7551    1.0000 </r>
       <r>   -6.6688    1.0000 </r>
       <r>   -1.7924    1.0000 </r>
       <r>   -1.7587    1.0000 </r>
       <r>    1.0171    1.0000 </r>
       <r>    1.7940    1.0000 </r>
       <r>    7.4608    0.0000 </r>
       <r>    7.9960    0.0000 </r>
       <r>   12.6143    0.0000 </r>
       <r>   12.8189    0.0000 </r>
      </set>
      <set comment="kpoint 46">
       <r>  -12.9814    1.0000 </r>
       <r>  -12.8365    1.0000 </r>
       <r>   -3.5351    1.0000 </r>
       <r>   -3.4760    1.0000 </r>
       <r>   -1.1551    1.0000 </r>
       <r>   -0.9058    1.0000 </r>
       <r>   -0.8759    1.0000 </r>
       <r>   -0.1869    1.0000 </r>
       <r>   10.8370    0.0000 </r>
       <r>   11.2353    0.0000 </r>
       <r>   12.3528    0.0000 </r>
       <r>   13.0544    0.0000 </r>
      </set>
      <set comment="kpoint 47">
       <r>  -14.2681    1.0000 </r>
       <r>  -14.1106    1.0000 </r>
       <r>   -2.6782    1.0000 </r>
       <r>   -1.6415    1.0000 </r>
       <r>   -0.4536    1.0000 </r>
       <r>   -0.4267    1.0000 </r>
       <r>    0.4618    1.0000 </r>
       <r>    0.4805    1.0000 </r>
       <r>   10.8556    0.0000 </r>
       <r>   13.3393    0.0000 </r>
       <r>   13.4986    0.0000 </r>
       <r>   14.0309    0.0000 </r>
      </set>
      <set comment="kpoint 48">
       <r>  -14.8259    1.0000 </r>
       <r>  -14.6628    1.0000 </r>
       <r>   -3.3488    1.0000 </r>
       <r>   -2.2876    1.0000 </r>
       <r>    1.3429    1.0000 </r>
       <r>    1.3580    1.0000 </r>
       <r>    1.5218    1.0000 </r>
       <r>    1.5352    1.0000 </r>
       <r>   10.2071    0.0000 </r>
       <r>   13.1243    0.0000 </r>
       <r>   13.1964    0.0000 </r>
       <r>   13.5330    0.0000 </r>
      </set>
      <set comment="kpoint 49">
       <r>  -12.4384    1.0000 </r>
       <r>  -12.2988    1.0000 </r>
       <r>   -3.7822    1.0000 </r>
       <r>   -3.7494    1.0000 </r>
       <r>   -2.3527    1.0000 </r>
       <r>   -2.3285    1.0000 </r>
       <r>   -0.5171    1.0000 </r>
       <r>    0.4195    1.0000 </r>
       <r>   10.0628    0.0000 </r>
       <r>   10.3442    0.0000 </r>
       <r>   12.9748    0.0000 </r>
       <r>   15.0822    0.0000 </r>
      </set>
      <set comment="kpoint 50">
       <r>  -10.5036    1.0000 </r>
       <r>  -10.3842    1.0000 </r>
       <r>   -6.4145    1.0000 </r>
       <r>   -6.3399    1.0000 </r>
       <r>   -3.6600    1.0000 </r>
       <r>   -3.6098    1.0000 </r>
       <r>    1.6387    1.0000 </r>
       <r>    2.3965    1.0000 </r>
       <r>    7.1843    0.0000 </r>
       <r>    7.5729    0.0000 </r>
       <r>   14.9068    0.0000 </r>
       <r>   15.1964    0.0000 </r>
      </set>
      <set comment="kpoint 51">
       <r>   -9.3884    1.0000 </r>
       <r>   -9.2918    1.0000 </r>
       <r>   -7.7232    1.0000 </r>
       <r>   -7.6462    1.0000 </r>
       <r>   -3.8867    1.0000 </r>
       <r>   -3.8323    1.0000 </r>
       <r>    2.6735    1.0000 </r>
       <r>    3.1764    1.0000 </r>
       <r>    6.1632    0.0000 </r>
       <r>    6.4335    0.0000 </r>
       <r>   15.0896    0.0000 </r>
       <r>   15.3388    0.0000 </r>
      </set>
      <set comment="kpoint 52">
       <r>  -11.5456    1.0000 </r>
       <r>  -11.4149    1.0000 </r>
       <r>   -5.0221    1.0000 </r>
       <r>   -4.9688    1.0000 </r>
       <r>   -3.1733    1.0000 </r>
       <r>   -3.1347    1.0000 </r>
       <r>    0.5046    1.0000 </r>
       <r>    1.3754    1.0000 </r>
       <r>    8.6118    0.0000 </r>
       <r>    8.9460    0.0000 </r>
       <r>   13.9405    0.0000 </r>
       <r>   15.3255    0.0000 </r>
      </set>
      <set comment="kpoint 53">
       <r>  -13.1641    1.0000 </r>
       <r>  -13.0174    1.0000 </r>
       <r>   -2.7978    1.0000 </r>
       <r>   -2.7579    1.0000 </r>
       <r>   -1.3662    1.0000 </r>
       <r>   -1.2660    1.0000 </r>
       <r>   -1.2389    1.0000 </r>
       <r>   -0.3858    1.0000 </r>
       <r>   11.3940    0.0000 </r>
       <r>   11.6735    0.0000 </r>
       <r>   12.1599    0.0000 </r>
       <r>   14.1316    0.0000 </r>
      </set>
      <set comment="kpoint 54">
       <r>  -14.0830    1.0000 </r>
       <r>  -13.9273    1.0000 </r>
       <r>   -2.4569    1.0000 </r>
       <r>   -1.4292    1.0000 </r>
       <r>   -1.0949    1.0000 </r>
       <r>   -1.0556    1.0000 </r>
       <r>    0.3488    1.0000 </r>
       <r>    0.3720    1.0000 </r>
       <r>   11.0630    0.0000 </r>
       <r>   12.9903    0.0000 </r>
       <r>   13.1505    0.0000 </r>
       <r>   13.5522    0.0000 </r>
      </set>
      <set comment="kpoint 55">
       <r>   -8.4664    1.0000 </r>
       <r>   -8.3813    1.0000 </r>
       <r>   -7.4475    1.0000 </r>
       <r>   -7.3982    1.0000 </r>
       <r>   -5.6967    1.0000 </r>
       <r>   -5.6734    1.0000 </r>
       <r>    3.8301    1.0000 </r>
       <r>    4.3301    1.0000 </r>
       <r>    5.1730    0.0000 </r>
       <r>    5.5357    0.0000 </r>
       <r>   15.1455    0.0000 </r>
       <r>   15.2167    0.0000 </r>
      </set>
      <set comment="kpoint 56">
       <r>   -9.5105    1.0000 </r>
       <r>   -9.4039    1.0000 </r>
       <r>   -6.8814    1.0000 </r>
       <r>   -6.8183    1.0000 </r>
       <r>   -4.8748    1.0000 </r>
       <r>   -4.8270    1.0000 </r>
       <r>    2.7166    1.0000 </r>
       <r>    3.3630    1.0000 </r>
       <r>    6.1993    0.0000 </r>
       <r>    6.5362    0.0000 </r>
       <r>   15.2725    0.0000 </r>
       <r>   15.5751    0.0000 </r>
      </set>
      <set comment="kpoint 57">
       <r>  -11.3685    1.0000 </r>
       <r>  -11.2397    1.0000 </r>
       <r>   -5.8578    1.0000 </r>
       <r>   -5.7814    1.0000 </r>
       <r>   -2.4280    1.0000 </r>
       <r>   -2.3863    1.0000 </r>
       <r>    0.6798    1.0000 </r>
       <r>    1.5213    1.0000 </r>
       <r>    8.1338    0.0000 </r>
       <r>    8.5911    0.0000 </r>
       <r>   13.7835    0.0000 </r>
       <r>   13.9187    0.0000 </r>
      </set>
      <set comment="kpoint 58">
       <r>  -12.6180    1.0000 </r>
       <r>  -12.4766    1.0000 </r>
       <r>   -4.3829    1.0000 </r>
       <r>   -4.3147    1.0000 </r>
       <r>   -0.8902    1.0000 </r>
       <r>   -0.8624    1.0000 </r>
       <r>   -0.7368    1.0000 </r>
       <r>    0.2058    1.0000 </r>
       <r>   10.0101    0.0000 </r>
       <r>   10.4813    0.0000 </r>
       <r>   12.4541    0.0000 </r>
       <r>   12.5732    0.0000 </r>
      </set>
      <set comment="kpoint 59">
       <r>   -9.3479    1.0000 </r>
       <r>   -9.2877    1.0000 </r>
       <r>   -8.3226    1.0000 </r>
       <r>   -8.2786    1.0000 </r>
       <r>   -2.8162    1.0000 </r>
       <r>   -2.7716    1.0000 </r>
       <r>    2.4707    1.0000 </r>
       <r>    2.8563    1.0000 </r>
       <r>    6.1883    0.0000 </r>
       <r>    6.4670    0.0000 </r>
       <r>   13.6082    0.0000 </r>
       <r>   13.8605    0.0000 </r>
      </set>
      <set comment="kpoint 60">
       <r>  -10.5085    1.0000 </r>
       <r>  -10.3907    1.0000 </r>
       <r>   -7.5475    1.0000 </r>
       <r>   -7.4567    1.0000 </r>
       <r>   -1.6014    1.0000 </r>
       <r>   -1.5717    1.0000 </r>
       <r>    1.4849    1.0000 </r>
       <r>    2.1496    1.0000 </r>
       <r>    6.8243    0.0000 </r>
       <r>    7.3508    0.0000 </r>
       <r>   12.1438    0.0000 </r>
       <r>   12.3542    0.0000 </r>
      </set>
      <set comment="kpoint 61">
       <r>  -14.5886    1.0000 </r>
       <r>  -14.5320    1.0000 </r>
       <r>   -2.8059    1.0000 </r>
       <r>   -2.4380    1.0000 </r>
       <r>    0.6950    1.0000 </r>
       <r>    0.7002    1.0000 </r>
       <r>    1.1298    1.0000 </r>
       <r>    1.1339    1.0000 </r>
       <r>   11.3605    0.0000 </r>
       <r>   12.4437    0.0000 </r>
       <r>   13.3478    0.0000 </r>
       <r>   13.3528    0.0000 </r>
      </set>
      <set comment="kpoint 62">
       <r>  -13.6657    1.0000 </r>
       <r>  -13.6124    1.0000 </r>
       <r>   -1.9064    1.0000 </r>
       <r>   -1.8917    1.0000 </r>
       <r>   -1.7101    1.0000 </r>
       <r>   -1.3580    1.0000 </r>
       <r>   -0.2469    1.0000 </r>
       <r>   -0.2379    1.0000 </r>
       <r>   12.2909    0.0000 </r>
       <r>   12.6942    0.0000 </r>
       <r>   12.7353    0.0000 </r>
       <r>   13.1813    0.0000 </r>
      </set>
      <set comment="kpoint 63">
       <r>  -12.0345    1.0000 </r>
       <r>  -11.9868    1.0000 </r>
       <r>   -5.1517    1.0000 </r>
       <r>   -5.1258    1.0000 </r>
       <r>   -1.4188    1.0000 </r>
       <r>   -1.4074    1.0000 </r>
       <r>    0.1558    1.0000 </r>
       <r>    0.4713    1.0000 </r>
       <r>    9.2267    0.0000 </r>
       <r>    9.3993    0.0000 </r>
       <r>   12.8521    0.0000 </r>
       <r>   12.9066    0.0000 </r>
      </set>
      <set comment="kpoint 64">
       <r>   -9.8443    1.0000 </r>
       <r>   -9.8086    1.0000 </r>
       <r>   -8.1261    1.0000 </r>
       <r>   -8.0963    1.0000 </r>
       <r>   -1.9667    1.0000 </r>
       <r>   -1.9547    1.0000 </r>
       <r>    2.1892    1.0000 </r>
       <r>    2.3667    1.0000 </r>
       <r>    6.4729    0.0000 </r>
       <r>    6.6240    0.0000 </r>
       <r>   12.5866    0.0000 </r>
       <r>   12.6645    0.0000 </r>
      </set>
      <set comment="kpoint 65">
       <r>  -10.9789    1.0000 </r>
       <r>  -10.9351    1.0000 </r>
       <r>   -6.7275    1.0000 </r>
       <r>   -6.6972    1.0000 </r>
       <r>   -1.7815    1.0000 </r>
       <r>   -1.7697    1.0000 </r>
       <r>    1.2598    1.0000 </r>
       <r>    1.5324    1.0000 </r>
       <r>    7.6124    0.0000 </r>
       <r>    7.8010    0.0000 </r>
       <r>   12.6809    0.0000 </r>
       <r>   12.7529    0.0000 </r>
      </set>
      <set comment="kpoint 66">
       <r>  -12.9354    1.0000 </r>
       <r>  -12.8845    1.0000 </r>
       <r>   -3.5161    1.0000 </r>
       <r>   -3.4953    1.0000 </r>
       <r>   -0.8963    1.0000 </r>
       <r>   -0.8858    1.0000 </r>
       <r>   -0.8605    1.0000 </r>
       <r>   -0.5222    1.0000 </r>
       <r>   10.9572    0.0000 </r>
       <r>   11.0978    0.0000 </r>
       <r>   12.9499    0.0000 </r>
       <r>   13.0734    0.0000 </r>
      </set>
      <set comment="kpoint 67">
       <r>  -14.2182    1.0000 </r>
       <r>  -14.1629    1.0000 </r>
       <r>   -2.3645    1.0000 </r>
       <r>   -2.0023    1.0000 </r>
       <r>   -0.4448    1.0000 </r>
       <r>   -0.4354    1.0000 </r>
       <r>    0.4677    1.0000 </r>
       <r>    0.4743    1.0000 </r>
       <r>   11.7688    0.0000 </r>
       <r>   12.7952    0.0000 </r>
       <r>   13.4821    0.0000 </r>
       <r>   13.5171    0.0000 </r>
      </set>
      <set comment="kpoint 68">
       <r>  -14.7743    1.0000 </r>
       <r>  -14.7171    1.0000 </r>
       <r>   -3.0281    1.0000 </r>
       <r>   -2.6575    1.0000 </r>
       <r>    1.3478    1.0000 </r>
       <r>    1.3531    1.0000 </r>
       <r>    1.5262    1.0000 </r>
       <r>    1.5309    1.0000 </r>
       <r>   11.1551    0.0000 </r>
       <r>   12.2602    0.0000 </r>
       <r>   13.1817    0.0000 </r>
       <r>   13.1873    0.0000 </r>
      </set>
      <set comment="kpoint 69">
       <r>  -12.3941    1.0000 </r>
       <r>  -12.3451    1.0000 </r>
       <r>   -3.7714    1.0000 </r>
       <r>   -3.7598    1.0000 </r>
       <r>   -2.3454    1.0000 </r>
       <r>   -2.3369    1.0000 </r>
       <r>   -0.2317    1.0000 </r>
       <r>    0.0958    1.0000 </r>
       <r>   10.1540    0.0000 </r>
       <r>   10.2527    0.0000 </r>
       <r>   13.7379    0.0000 </r>
       <r>   14.5536    0.0000 </r>
      </set>
      <set comment="kpoint 70">
       <r>  -10.4655    1.0000 </r>
       <r>  -10.4236    1.0000 </r>
       <r>   -6.3906    1.0000 </r>
       <r>   -6.3644    1.0000 </r>
       <r>   -3.6440    1.0000 </r>
       <r>   -3.6264    1.0000 </r>
       <r>    1.8751    1.0000 </r>
       <r>    2.1409    1.0000 </r>
       <r>    7.3031    0.0000 </r>
       <r>    7.4400    0.0000 </r>
       <r>   15.1335    0.0000 </r>
       <r>   15.2048    0.0000 </r>
      </set>
      <set comment="kpoint 71">
       <r>   -9.3573    1.0000 </r>
       <r>   -9.3233    1.0000 </r>
       <r>   -7.6991    1.0000 </r>
       <r>   -7.6720    1.0000 </r>
       <r>   -3.8693    1.0000 </r>
       <r>   -3.8502    1.0000 </r>
       <r>    2.8455    1.0000 </r>
       <r>    3.0237    1.0000 </r>
       <r>    6.2233    0.0000 </r>
       <r>    6.3203    0.0000 </r>
       <r>   15.1376    0.0000 </r>
       <r>   15.2156    0.0000 </r>
      </set>
      <set comment="kpoint 72">
       <r>  -11.5040    1.0000 </r>
       <r>  -11.4581    1.0000 </r>
       <r>   -5.0048    1.0000 </r>
       <r>   -4.9861    1.0000 </r>
       <r>   -3.1612    1.0000 </r>
       <r>   -3.1476    1.0000 </r>
       <r>    0.7717    1.0000 </r>
       <r>    1.0764    1.0000 </r>
       <r>    8.7190    0.0000 </r>
       <r>    8.8364    0.0000 </r>
       <r>   14.5488    0.0000 </r>
       <r>   15.1045    0.0000 </r>
      </set>
      <set comment="kpoint 73">
       <r>  -13.1175    1.0000 </r>
       <r>  -13.0661    1.0000 </r>
       <r>   -2.7848    1.0000 </r>
       <r>   -2.7708    1.0000 </r>
       <r>   -1.2575    1.0000 </r>
       <r>   -1.2480    1.0000 </r>
       <r>   -1.0684    1.0000 </r>
       <r>   -0.7258    1.0000 </r>
       <r>   11.4840    0.0000 </r>
       <r>   11.5823    0.0000 </r>
       <r>   12.9882    0.0000 </r>
       <r>   13.8416    0.0000 </r>
      </set>
      <set comment="kpoint 74">
       <r>  -14.0336    1.0000 </r>
       <r>  -13.9790    1.0000 </r>
       <r>   -2.1458    1.0000 </r>
       <r>   -1.7867    1.0000 </r>
       <r>   -1.0823    1.0000 </r>
       <r>   -1.0684    1.0000 </r>
       <r>    0.3562    1.0000 </r>
       <r>    0.3644    1.0000 </r>
       <r>   11.9486    0.0000 </r>
       <r>   12.8103    0.0000 </r>
       <r>   13.1354    0.0000 </r>
       <r>   13.2817    0.0000 </r>
      </set>
      <set comment="kpoint 75">
       <r>   -8.4388    1.0000 </r>
       <r>   -8.4090    1.0000 </r>
       <r>   -7.4315    1.0000 </r>
       <r>   -7.4142    1.0000 </r>
       <r>   -5.6903    1.0000 </r>
       <r>   -5.6821    1.0000 </r>
       <r>    4.0034    1.0000 </r>
       <r>    4.1811    1.0000 </r>
       <r>    5.2757    0.0000 </r>
       <r>    5.4004    0.0000 </r>
       <r>   14.9849    0.0000 </r>
       <r>   15.0127    0.0000 </r>
      </set>
      <set comment="kpoint 76">
       <r>   -9.4764    1.0000 </r>
       <r>   -9.4389    1.0000 </r>
       <r>   -6.8610    1.0000 </r>
       <r>   -6.8388    1.0000 </r>
       <r>   -4.8599    1.0000 </r>
       <r>   -4.8432    1.0000 </r>
       <r>    2.9230    1.0000 </r>
       <r>    3.1503    1.0000 </r>
       <r>    6.3029    0.0000 </r>
       <r>    6.4210    0.0000 </r>
       <r>   15.2321    0.0000 </r>
       <r>   15.3360    0.0000 </r>
      </set>
      <set comment="kpoint 77">
       <r>  -11.3275    1.0000 </r>
       <r>  -11.2823    1.0000 </r>
       <r>   -5.8333    1.0000 </r>
       <r>   -5.8065    1.0000 </r>
       <r>   -2.4146    1.0000 </r>
       <r>   -2.3999    1.0000 </r>
       <r>    0.9393    1.0000 </r>
       <r>    1.2340    1.0000 </r>
       <r>    8.2714    0.0000 </r>
       <r>    8.4325    0.0000 </r>
       <r>   13.8611    0.0000 </r>
       <r>   13.9203    0.0000 </r>
      </set>
      <set comment="kpoint 78">
       <r>  -12.5730    1.0000 </r>
       <r>  -12.5234    1.0000 </r>
       <r>   -4.3611    1.0000 </r>
       <r>   -4.3371    1.0000 </r>
       <r>   -0.8812    1.0000 </r>
       <r>   -0.8714    1.0000 </r>
       <r>   -0.4495    1.0000 </r>
       <r>   -0.1199    1.0000 </r>
       <r>   10.1490    0.0000 </r>
       <r>   10.3153    0.0000 </r>
       <r>   12.5521    0.0000 </r>
       <r>   12.5956    0.0000 </r>
      </set>
      <set comment="kpoint 79">
       <r>   -9.3271    1.0000 </r>
       <r>   -9.3058    1.0000 </r>
       <r>   -8.3108    1.0000 </r>
       <r>   -8.2953    1.0000 </r>
       <r>   -2.8018    1.0000 </r>
       <r>   -2.7862    1.0000 </r>
       <r>    2.6123    1.0000 </r>
       <r>    2.7495    1.0000 </r>
       <r>    6.2343    0.0000 </r>
       <r>    6.3346    0.0000 </r>
       <r>   13.6847    0.0000 </r>
       <r>   13.7731    0.0000 </r>
      </set>
      <set comment="kpoint 80">
       <r>  -10.4708    1.0000 </r>
       <r>  -10.4295    1.0000 </r>
       <r>   -7.5186    1.0000 </r>
       <r>   -7.4867    1.0000 </r>
       <r>   -1.5918    1.0000 </r>
       <r>   -1.5813    1.0000 </r>
       <r>    1.6988    1.0000 </r>
       <r>    1.9328    1.0000 </r>
       <r>    6.9624    0.0000 </r>
       <r>    7.1483    0.0000 </r>
       <r>   12.2112    0.0000 </r>
       <r>   12.2851    0.0000 </r>
      </set>
     </set>
    </set>
   </array>
  </eigenvalues>
  <separator name="orbital magnetization" >
   <v name="MAGDIPOLOUT">      0.00000000      0.00000000      0.00000000</v>
  </separator>
 </calculation>
 <structure name="finalpos" >
  <crystal>
   <varray name="basis" >
    <v>       2.45897494       0.00000000       0.00000000 </v>
    <v>      -1.22948747       2.12953476       0.00000000 </v>
    <v>       0.00000000       0.00000000       6.72004510 </v>
   </varray>
   <i name="volume">     35.18933212 </i>
   <varray name="rec_basis" >
    <v>       0.40667352       0.23479307       0.00000000 </v>
    <v>       0.00000000       0.46958614       0.00000000 </v>
    <v>       0.00000000       0.00000000       0.14880853 </v>
   </varray>
  </crystal>
  <varray name="positions" >
   <v>       0.00000000       0.00000000       0.00000000 </v>
   <v>       0.33333333       0.66666667       0.00000000 </v>
   <v>       0.33333333       0.66666667       0.50000000 </v>
   <v>       0.66666667       0.33333333       0.50000000 </v>
  </varray>
 </structure>
</modeling>
