unknown system                          
   1.00000000000000     
     3.300000    0.000000    0.000000
     0.000000    3.300000    0.000000
     0.000000    0.000000    3.300000
   Ta
     2
Direct
  0.000000  0.000000  0.000000
  0.500000  0.500000  0.500000
 
   28   28   28
  15.340      14.837      13.693      12.645      12.128      11.965      11.683      11.010      10.056      9.1271    
  8.4460      8.0542      7.8856      7.8497      7.8512      7.8497      7.8856      8.0542      8.4460      9.1271    
  10.056      11.010      11.683      11.965      12.128      12.645      13.693      14.837      14.837      14.444    
  13.563      12.790      12.433      12.286      11.925      11.152      10.129      9.1663      8.4749      8.0797    
  7.9094      7.8721      7.8729      7.8721      7.9094      8.0797      8.4749      9.1663      10.129      11.152    
  11.925      12.286      12.433      12.790      13.563      14.444      13.693      13.563      13.315      13.188    
  13.193      13.054      12.483      11.470      10.287      9.2569      8.5499      8.1504      7.9773      7.9366    
  7.9357      7.9366      7.9773      8.1504      8.5499      9.2569      10.287      11.470      12.483      13.054    
  13.193      13.188      13.315      13.563      12.645      12.790      13.188      13.690      13.999      13.797    
  12.968      11.710      10.396      9.3378      8.6426      8.2507      8.0794      8.0346      8.0311      8.0346    
  8.0794      8.2507      8.6426      9.3378      10.396      11.710      12.968      13.797      13.999      13.690    
  13.188      12.790      12.128      12.433      13.193      13.999      14.380      14.039      13.019      11.653    
  10.347      9.3571      8.7218      8.3603      8.1987      8.1504      8.1437      8.1504      8.1987      8.3603    
  8.7218      9.3571      10.347      11.653      13.019      14.039      14.380      13.999      13.193      12.433    
  11.965      12.286      13.054      13.797      14.039      13.567      12.518      11.253      10.124      9.3007    
  8.7669      8.4590      8.3137      8.2617      8.2509      8.2617      8.3137      8.4590      8.7669      9.3007    
  10.124      11.253      12.518      13.567      14.039      13.797      13.054      12.286      11.683      11.925    
  12.483      12.968      13.019      12.518      11.625      10.637      9.7963      9.1845      8.7743      8.5303    
  8.4019      8.3442      8.3283      8.3442      8.4019      8.5303      8.7743      9.1845      9.7963      10.637    
  11.625      12.518      13.019      12.968      12.483      11.925      11.010      11.152      11.470      11.710    
  11.653      11.253      10.637      9.9941      9.4515      9.0370      8.7498      8.5629      8.4452      8.3785    
  8.3566      8.3785      8.4452      8.5629      8.7498      9.0370      9.4515      9.9941      10.637      11.253    
  11.653      11.710      11.470      11.152      10.056      10.129      10.287      10.396      10.347      10.124    
  9.7963      9.4515      9.1393      8.8891      8.6986      8.5502      8.4343      8.3563      8.3283      8.3563    
  8.4343      8.5502      8.6986      8.8891      9.1393      9.4515      9.7963      10.124      10.347      10.396    
  10.287      10.129      9.1271      9.1663      9.2569      9.3378      9.3571      9.3007      9.1845      9.0370    
  8.8891      8.7519      8.6207      8.4909      8.3712      8.2834      8.2509      8.2834      8.3712      8.4909    
  8.6207      8.7519      8.8891      9.0370      9.1845      9.3007      9.3571      9.3378      9.2569      9.1663    
  8.4460      8.4749      8.5499      8.6426      8.7218      8.7669      8.7743      8.7498      8.6986      8.6207    
  8.5159      8.3918      8.2693      8.1777      8.1437      8.1777      8.2693      8.3918      8.5159      8.6207    
  8.6986      8.7498      8.7743      8.7669      8.7218      8.6426      8.5499      8.4749      8.0542      8.0797    
  8.1504      8.2507      8.3603      8.4590      8.5303      8.5629      8.5502      8.4909      8.3918      8.2698    
  8.1505      8.0632      8.0311      8.0632      8.1505      8.2698      8.3918      8.4909      8.5502      8.5629    
  8.5303      8.4590      8.3603      8.2507      8.1504      8.0797      7.8856      7.9094      7.9773      8.0794    
  8.1987      8.3137      8.4019      8.4452      8.4343      8.3712      8.2693      8.1505      8.0406      7.9634    
  7.9357      7.9634      8.0406      8.1505      8.2693      8.3712      8.4343      8.4452      8.4019      8.3137    
  8.1987      8.0794      7.9773      7.9094      7.8497      7.8721      7.9366      8.0346      8.1504      8.2617    
  8.3442      8.3785      8.3563      8.2834      8.1777      8.0632      7.9634      7.8964      7.8729      7.8964    
  7.9634      8.0632      8.1777      8.2834      8.3563      8.3785      8.3442      8.2617      8.1504      8.0346    
  7.9366      7.8721      7.8512      7.8729      7.9357      8.0311      8.1437      8.2509      8.3283      8.3566    
  8.3283      8.2509      8.1437      8.0311      7.9357      7.8729      7.8512      7.8729      7.9357      8.0311    
  8.1437      8.2509      8.3283      8.3566      8.3283      8.2509      8.1437      8.0311      7.9357      7.8729    
  7.8497      7.8721      7.9366      8.0346      8.1504      8.2617      8.3442      8.3785      8.3563      8.2834    
  8.1777      8.0632      7.9634      7.8964      7.8729      7.8964      7.9634      8.0632      8.1777      8.2834    
  8.3563      8.3785      8.3442      8.2617      8.1504      8.0346      7.9366      7.8721      7.8856      7.9094    
  7.9773      8.0794      8.1987      8.3137      8.4019      8.4452      8.4343      8.3712      8.2693      8.1505    
  8.0406      7.9634      7.9357      7.9634      8.0406      8.1505      8.2693      8.3712      8.4343      8.4452    
  8.4019      8.3137      8.1987      8.0794      7.9773      7.9094      8.0542      8.0797      8.1504      8.2507    
  8.3603      8.4590      8.5303      8.5629      8.5502      8.4909      8.3918      8.2698      8.1505      8.0632    
  8.0311      8.0632      8.1505      8.2698      8.3918      8.4909      8.5502      8.5629      8.5303      8.4590    
  8.3603      8.2507      8.1504      8.0797      8.4460      8.4749      8.5499      8.6426      8.7218      8.7669    
  8.7743      8.7498      8.6986      8.6207      8.5159      8.3918      8.2693      8.1777      8.1437      8.1777    
  8.2693      8.3918      8.5159      8.6207      8.6986      8.7498      8.7743      8.7669      8.7218      8.6426    
  8.5499      8.4749      9.1271      9.1663      9.2569      9.3378      9.3571      9.3007      9.1845      9.0370    
  8.8891      8.7519      8.6207      8.4909      8.3712      8.2834      8.2509      8.2834      8.3712      8.4909    
  8.6207      8.7519      8.8891      9.0370      9.1845      9.3007      9.3571      9.3378      9.2569      9.1663    
  10.056      10.129      10.287      10.396      10.347      10.124      9.7963      9.4515      9.1393      8.8891    
  8.6986      8.5502      8.4343      8.3563      8.3283      8.3563      8.4343      8.5502      8.6986      8.8891    
  9.1393      9.4515      9.7963      10.124      10.347      10.396      10.287      10.129      11.010      11.152    
  11.470      11.710      11.653      11.253      10.637      9.9941      9.4515      9.0370      8.7498      8.5629    
  8.4452      8.3785      8.3566      8.3785      8.4452      8.5629      8.7498      9.0370      9.4515      9.9941    
  10.637      11.253      11.653      11.710      11.470      11.152      11.683      11.925      12.483      12.968    
  13.019      12.518      11.625      10.637      9.7963      9.1845      8.7743      8.5303      8.4019      8.3442    
  8.3283      8.3442      8.4019      8.5303      8.7743      9.1845      9.7963      10.637      11.625      12.518    
  13.019      12.968      12.483      11.925      11.965      12.286      13.054      13.797      14.039      13.567    
  12.518      11.253      10.124      9.3007      8.7669      8.4590      8.3137      8.2617      8.2509      8.2617    
  8.3137      8.4590      8.7669      9.3007      10.124      11.253      12.518      13.567      14.039      13.797    
  13.054      12.286      12.128      12.433      13.193      13.999      14.380      14.039      13.019      11.653    
  10.347      9.3571      8.7218      8.3603      8.1987      8.1504      8.1437      8.1504      8.1987      8.3603    
  8.7218      9.3571      10.347      11.653      13.019      14.039      14.380      13.999      13.193      12.433    
  12.645      12.790      13.188      13.690      13.999      13.797      12.968      11.710      10.396      9.3378    
  8.6426      8.2507      8.0794      8.0346      8.0311      8.0346      8.0794      8.2507      8.6426      9.3378    
  10.396      11.710      12.968      13.797      13.999      13.690      13.188      12.790      13.693      13.563    
  13.315      13.188      13.193      13.054      12.483      11.470      10.287      9.2569      8.5499      8.1504    
  7.9773      7.9366      7.9357      7.9366      7.9773      8.1504      8.5499      9.2569      10.287      11.470    
  12.483      13.054      13.193      13.188      13.315      13.563      14.837      14.444      13.563      12.790    
  12.433      12.286      11.925      11.152      10.129      9.1663      8.4749      8.0797      7.9094      7.8721    
  7.8729      7.8721      7.9094      8.0797      8.4749      9.1663      10.129      11.152      11.925      12.286    
  12.433      12.790      13.563      14.444      14.837      14.444      13.563      12.790      12.433      12.286    
  11.925      11.152      10.129      9.1663      8.4749      8.0797      7.9094      7.8721      7.8729      7.8721    
  7.9094      8.0797      8.4749      9.1663      10.129      11.152      11.925      12.286      12.433      12.790    
  13.563      14.444      14.444      14.146      13.495      12.957      12.731      12.585      12.145      11.280    
  10.194      9.2029      8.5038      8.1062      7.9347      7.8961      7.8964      7.8961      7.9347      8.1062    
  8.5038      9.2029      10.194      11.280      12.145      12.585      12.731      12.957      13.495      14.146    
  13.563      13.495      13.392      13.401      13.463      13.293      12.645      11.559      10.332      9.2871    
  8.5787      8.1795      8.0064      7.9648      7.9634      7.9648      8.0064      8.1795      8.5787      9.2871    
  10.332      11.559      12.645      13.293      13.463      13.401      13.392      13.495      12.790      12.957    
  13.401      13.930      14.218      13.955      13.058      11.752      10.420      9.3615      8.6715      8.2827    
  8.1124      8.0671      8.0632      8.0671      8.1124      8.2827      8.6715      9.3615      10.420      11.752    
  13.058      13.955      14.218      13.930      13.401      12.957      12.433      12.731      13.463      14.218    
  14.528      14.117      13.047      11.660      10.356      9.3774      8.7508      8.3940      8.2337      8.1849    
  8.1777      8.1849      8.2337      8.3940      8.7508      9.3774      10.356      11.660      13.047      14.117    
  14.528      14.218      13.463      12.731      12.286      12.585      13.293      13.955      14.117      13.586    
  12.510      11.245      10.130      9.3211      8.7958      8.4924      8.3478      8.2948      8.2834      8.2948    
  8.3478      8.4924      8.7958      9.3211      10.130      11.245      12.510      13.586      14.117      13.955    
  13.293      12.585      11.925      12.145      12.645      13.058      13.047      12.510      11.609      10.632    
  9.8066      9.2061      8.8026      8.5612      8.4322      8.3730      8.3563      8.3730      8.4322      8.5612    
  8.8026      9.2061      9.8066      10.632      11.609      12.510      13.047      13.058      12.645      12.145    
  11.152      11.280      11.559      11.752      11.660      11.245      10.632      10.000      9.4678      9.0600    
  8.7763      8.5895      8.4700      8.4012      8.3785      8.4012      8.4700      8.5895      8.7763      9.0600    
  9.4678      10.000      10.632      11.245      11.660      11.752      11.559      11.280      10.129      10.194    
  10.332      10.420      10.356      10.130      9.8066      9.4678      9.1602      8.9125      8.7218      8.5715    
  8.4530      8.3730      8.3442      8.3730      8.4530      8.5715      8.7218      8.9125      9.1602      9.4678    
  9.8066      10.130      10.356      10.420      10.332      10.194      9.1663      9.2029      9.2871      9.3615    
  9.3774      9.3211      9.2061      9.0600      8.9125      8.7739      8.6399      8.5069      8.3844      8.2948    
  8.2617      8.2948      8.3844      8.5069      8.6399      8.7739      8.9125      9.0600      9.2061      9.3211    
  9.3774      9.3615      9.2871      9.2029      8.4749      8.5038      8.5787      8.6715      8.7508      8.7958    
  8.8026      8.7763      8.7218      8.6399      8.5308      8.4032      8.2780      8.1849      8.1504      8.1849    
  8.2780      8.4032      8.5308      8.6399      8.7218      8.7763      8.8026      8.7958      8.7508      8.6715    
  8.5787      8.5038      8.0797      8.1062      8.1795      8.2827      8.3940      8.4924      8.5612      8.5895    
  8.5715      8.5069      8.4032      8.2775      8.1558      8.0671      8.0346      8.0671      8.1558      8.2775    
  8.4032      8.5069      8.5715      8.5895      8.5612      8.4924      8.3940      8.2827      8.1795      8.1062    
  7.9094      7.9347      8.0064      8.1124      8.2337      8.3478      8.4322      8.4700      8.4530      8.3844    
  8.2780      8.1558      8.0435      7.9648      7.9366      7.9648      8.0435      8.1558      8.2780      8.3844    
  8.4530      8.4700      8.4322      8.3478      8.2337      8.1124      8.0064      7.9347      7.8721      7.8961    
  7.9648      8.0671      8.1849      8.2948      8.3730      8.4012      8.3730      8.2948      8.1849      8.0671    
  7.9648      7.8961      7.8721      7.8961      7.9648      8.0671      8.1849      8.2948      8.3730      8.4012    
  8.3730      8.2948      8.1849      8.0671      7.9648      7.8961      7.8729      7.8964      7.9634      8.0632    
  8.1777      8.2834      8.3563      8.3785      8.3442      8.2617      8.1504      8.0346      7.9366      7.8721    
  7.8497      7.8721      7.9366      8.0346      8.1504      8.2617      8.3442      8.3785      8.3563      8.2834    
  8.1777      8.0632      7.9634      7.8964      7.8721      7.8961      7.9648      8.0671      8.1849      8.2948    
  8.3730      8.4012      8.3730      8.2948      8.1849      8.0671      7.9648      7.8961      7.8721      7.8961    
  7.9648      8.0671      8.1849      8.2948      8.3730      8.4012      8.3730      8.2948      8.1849      8.0671    
  7.9648      7.8961      7.9094      7.9347      8.0064      8.1124      8.2337      8.3478      8.4322      8.4700    
  8.4530      8.3844      8.2780      8.1558      8.0435      7.9648      7.9366      7.9648      8.0435      8.1558    
  8.2780      8.3844      8.4530      8.4700      8.4322      8.3478      8.2337      8.1124      8.0064      7.9347    
  8.0797      8.1062      8.1795      8.2827      8.3940      8.4924      8.5612      8.5895      8.5715      8.5069    
  8.4032      8.2775      8.1558      8.0671      8.0346      8.0671      8.1558      8.2775      8.4032      8.5069    
  8.5715      8.5895      8.5612      8.4924      8.3940      8.2827      8.1795      8.1062      8.4749      8.5038    
  8.5787      8.6715      8.7508      8.7958      8.8026      8.7763      8.7218      8.6399      8.5308      8.4032    
  8.2780      8.1849      8.1504      8.1849      8.2780      8.4032      8.5308      8.6399      8.7218      8.7763    
  8.8026      8.7958      8.7508      8.6715      8.5787      8.5038      9.1663      9.2029      9.2871      9.3615    
  9.3774      9.3211      9.2061      9.0600      8.9125      8.7739      8.6399      8.5069      8.3844      8.2948    
  8.2617      8.2948      8.3844      8.5069      8.6399      8.7739      8.9125      9.0600      9.2061      9.3211    
  9.3774      9.3615      9.2871      9.2029      10.129      10.194      10.332      10.420      10.356      10.130    
  9.8066      9.4678      9.1602      8.9125      8.7218      8.5715      8.4530      8.3730      8.3442      8.3730    
  8.4530      8.5715      8.7218      8.9125      9.1602      9.4678      9.8066      10.130      10.356      10.420    
  10.332      10.194      11.152      11.280      11.559      11.752      11.660      11.245      10.632      10.000    
  9.4678      9.0600      8.7763      8.5895      8.4700      8.4012      8.3785      8.4012      8.4700      8.5895    
  8.7763      9.0600      9.4678      10.000      10.632      11.245      11.660      11.752      11.559      11.280    
  11.925      12.145      12.645      13.058      13.047      12.510      11.609      10.632      9.8066      9.2061    
  8.8026      8.5612      8.4322      8.3730      8.3563      8.3730      8.4322      8.5612      8.8026      9.2061    
  9.8066      10.632      11.609      12.510      13.047      13.058      12.645      12.145      12.286      12.585    
  13.293      13.955      14.117      13.586      12.510      11.245      10.130      9.3211      8.7958      8.4924    
  8.3478      8.2948      8.2834      8.2948      8.3478      8.4924      8.7958      9.3211      10.130      11.245    
  12.510      13.586      14.117      13.955      13.293      12.585      12.433      12.731      13.463      14.218    
  14.528      14.117      13.047      11.660      10.356      9.3774      8.7508      8.3940      8.2337      8.1849    
  8.1777      8.1849      8.2337      8.3940      8.7508      9.3774      10.356      11.660      13.047      14.117    
  14.528      14.218      13.463      12.731      12.790      12.957      13.401      13.930      14.218      13.955    
  13.058      11.752      10.420      9.3615      8.6715      8.2827      8.1124      8.0671      8.0632      8.0671    
  8.1124      8.2827      8.6715      9.3615      10.420      11.752      13.058      13.955      14.218      13.930    
  13.401      12.957      13.563      13.495      13.392      13.401      13.463      13.293      12.645      11.559    
  10.332      9.2871      8.5787      8.1795      8.0064      7.9648      7.9634      7.9648      8.0064      8.1795    
  8.5787      9.2871      10.332      11.559      12.645      13.293      13.463      13.401      13.392      13.495    
  14.444      14.146      13.495      12.957      12.731      12.585      12.145      11.280      10.194      9.2029    
  8.5038      8.1062      7.9347      7.8961      7.8964      7.8961      7.9347      8.1062      8.5038      9.2029    
  10.194      11.280      12.145      12.585      12.731      12.957      13.495      14.146      13.693      13.563    
  13.315      13.188      13.193      13.054      12.483      11.470      10.287      9.2569      8.5499      8.1504    
  7.9773      7.9366      7.9357      7.9366      7.9773      8.1504      8.5499      9.2569      10.287      11.470    
  12.483      13.054      13.193      13.188      13.315      13.563      13.563      13.495      13.392      13.401    
  13.463      13.293      12.645      11.559      10.332      9.2871      8.5787      8.1795      8.0064      7.9648    
  7.9634      7.9648      8.0064      8.1795      8.5787      9.2871      10.332      11.559      12.645      13.293    
  13.463      13.401      13.392      13.495      13.315      13.392      13.621      13.935      14.107      13.840    
  12.996      11.739      10.422      9.3561      8.6537      8.2591      8.0872      8.0435      8.0406      8.0435    
  8.0872      8.2591      8.6537      9.3561      10.422      11.739      12.996      13.840      14.107      13.935    
  13.621      13.392      13.188      13.401      13.935      14.499      14.710      14.286      13.226      11.819    
  10.459      9.4160      8.7469      8.3692      8.2026      8.1558      8.1505      8.1558      8.2026      8.3692    
  8.7469      9.4160      10.459      11.819      13.226      14.286      14.710      14.499      13.935      13.401    
  13.193      13.463      14.107      14.710      14.830      14.244      13.063      11.644      10.364      9.4254    
  8.8265      8.4846      8.3286      8.2780      8.2693      8.2780      8.3286      8.4846      8.8265      9.4254    
  10.364      11.644      13.063      14.244      14.830      14.710      14.107      13.463      13.054      13.293    
  13.840      14.286      14.244      13.574      12.445      11.199      10.134      9.3709      8.8721      8.5823    
  8.4401      8.3844      8.3712      8.3844      8.4401      8.5823      8.8721      9.3709      10.134      11.199    
  12.445      13.574      14.244      14.286      13.840      13.293      12.483      12.645      12.996      13.226    
  13.063      12.445      11.538      10.602      9.8270      9.2611      8.8786      8.6459      8.5163      8.4530    
  8.4343      8.4530      8.5163      8.6459      8.8786      9.2611      9.8270      10.602      11.538      12.445    
  13.063      13.226      12.996      12.645      11.470      11.559      11.739      11.819      11.644      11.199    
  10.602      10.007      9.5073      9.1218      8.8503      8.6661      8.5433      8.4700      8.4452      8.4700    
  8.5433      8.6661      8.8503      9.1218      9.5073      10.007      10.602      11.199      11.644      11.819    
  11.739      11.559      10.287      10.332      10.422      10.459      10.364      10.134      9.8270      9.5073    
  9.2161      8.9790      8.7917      8.6392      8.5163      8.4322      8.4019      8.4322      8.5163      8.6392    
  8.7917      8.9790      9.2161      9.5073      9.8270      10.134      10.364      10.459      10.422      10.332    
  9.2569      9.2871      9.3561      9.4160      9.4254      9.3709      9.2611      9.1218      8.9790      8.8409    
  8.7041      8.5668      8.4401      8.3478      8.3137      8.3478      8.4401      8.5668      8.7041      8.8409    
  8.9790      9.1218      9.2611      9.3709      9.4254      9.4160      9.3561      9.2871      8.5499      8.5787    
  8.6537      8.7469      8.8265      8.8721      8.8786      8.8503      8.7917      8.7041      8.5893      8.4569    
  8.3286      8.2337      8.1987      8.2337      8.3286      8.4569      8.5893      8.7041      8.7917      8.8503    
  8.8786      8.8721      8.8265      8.7469      8.6537      8.5787      8.1504      8.1795      8.2591      8.3692    
  8.4846      8.5823      8.6459      8.6661      8.6392      8.5668      8.4569      8.3270      8.2026      8.1124    
  8.0794      8.1124      8.2026      8.3270      8.4569      8.5668      8.6392      8.6661      8.6459      8.5823    
  8.4846      8.3692      8.2591      8.1795      7.9773      8.0064      8.0872      8.2026      8.3286      8.4401    
  8.5163      8.5433      8.5163      8.4401      8.3286      8.2026      8.0872      8.0064      7.9773      8.0064    
  8.0872      8.2026      8.3286      8.4401      8.5163      8.5433      8.5163      8.4401      8.3286      8.2026    
  8.0872      8.0064      7.9366      7.9648      8.0435      8.1558      8.2780      8.3844      8.4530      8.4700    
  8.4322      8.3478      8.2337      8.1124      8.0064      7.9347      7.9094      7.9347      8.0064      8.1124    
  8.2337      8.3478      8.4322      8.4700      8.4530      8.3844      8.2780      8.1558      8.0435      7.9648    
  7.9357      7.9634      8.0406      8.1505      8.2693      8.3712      8.4343      8.4452      8.4019      8.3137    
  8.1987      8.0794      7.9773      7.9094      7.8856      7.9094      7.9773      8.0794      8.1987      8.3137    
  8.4019      8.4452      8.4343      8.3712      8.2693      8.1505      8.0406      7.9634      7.9366      7.9648    
  8.0435      8.1558      8.2780      8.3844      8.4530      8.4700      8.4322      8.3478      8.2337      8.1124    
  8.0064      7.9347      7.9094      7.9347      8.0064      8.1124      8.2337      8.3478      8.4322      8.4700    
  8.4530      8.3844      8.2780      8.1558      8.0435      7.9648      7.9773      8.0064      8.0872      8.2026    
  8.3286      8.4401      8.5163      8.5433      8.5163      8.4401      8.3286      8.2026      8.0872      8.0064    
  7.9773      8.0064      8.0872      8.2026      8.3286      8.4401      8.5163      8.5433      8.5163      8.4401    
  8.3286      8.2026      8.0872      8.0064      8.1504      8.1795      8.2591      8.3692      8.4846      8.5823    
  8.6459      8.6661      8.6392      8.5668      8.4569      8.3270      8.2026      8.1124      8.0794      8.1124    
  8.2026      8.3270      8.4569      8.5668      8.6392      8.6661      8.6459      8.5823      8.4846      8.3692    
  8.2591      8.1795      8.5499      8.5787      8.6537      8.7469      8.8265      8.8721      8.8786      8.8503    
  8.7917      8.7041      8.5893      8.4569      8.3286      8.2337      8.1987      8.2337      8.3286      8.4569    
  8.5893      8.7041      8.7917      8.8503      8.8786      8.8721      8.8265      8.7469      8.6537      8.5787    
  9.2569      9.2871      9.3561      9.4160      9.4254      9.3709      9.2611      9.1218      8.9790      8.8409    
  8.7041      8.5668      8.4401      8.3478      8.3137      8.3478      8.4401      8.5668      8.7041      8.8409    
  8.9790      9.1218      9.2611      9.3709      9.4254      9.4160      9.3561      9.2871      10.287      10.332    
  10.422      10.459      10.364      10.134      9.8270      9.5073      9.2161      8.9790      8.7917      8.6392    
  8.5163      8.4322      8.4019      8.4322      8.5163      8.6392      8.7917      8.9790      9.2161      9.5073    
  9.8270      10.134      10.364      10.459      10.422      10.332      11.470      11.559      11.739      11.819    
  11.644      11.199      10.602      10.007      9.5073      9.1218      8.8503      8.6661      8.5433      8.4700    
  8.4452      8.4700      8.5433      8.6661      8.8503      9.1218      9.5073      10.007      10.602      11.199    
  11.644      11.819      11.739      11.559      12.483      12.645      12.996      13.226      13.063      12.445    
  11.538      10.602      9.8270      9.2611      8.8786      8.6459      8.5163      8.4530      8.4343      8.4530    
  8.5163      8.6459      8.8786      9.2611      9.8270      10.602      11.538      12.445      13.063      13.226    
  12.996      12.645      13.054      13.293      13.840      14.286      14.244      13.574      12.445      11.199    
  10.134      9.3709      8.8721      8.5823      8.4401      8.3844      8.3712      8.3844      8.4401      8.5823    
  8.8721      9.3709      10.134      11.199      12.445      13.574      14.244      14.286      13.840      13.293    
  13.193      13.463      14.107      14.710      14.830      14.244      13.063      11.644      10.364      9.4254    
  8.8265      8.4846      8.3286      8.2780      8.2693      8.2780      8.3286      8.4846      8.8265      9.4254    
  10.364      11.644      13.063      14.244      14.830      14.710      14.107      13.463      13.188      13.401    
  13.935      14.499      14.710      14.286      13.226      11.819      10.459      9.4160      8.7469      8.3692    
  8.2026      8.1558      8.1505      8.1558      8.2026      8.3692      8.7469      9.4160      10.459      11.819    
  13.226      14.286      14.710      14.499      13.935      13.401      13.315      13.392      13.621      13.935    
  14.107      13.840      12.996      11.739      10.422      9.3561      8.6537      8.2591      8.0872      8.0435    
  8.0406      8.0435      8.0872      8.2591      8.6537      9.3561      10.422      11.739      12.996      13.840    
  14.107      13.935      13.621      13.392      13.563      13.495      13.392      13.401      13.463      13.293    
  12.645      11.559      10.332      9.2871      8.5787      8.1795      8.0064      7.9648      7.9634      7.9648    
  8.0064      8.1795      8.5787      9.2871      10.332      11.559      12.645      13.293      13.463      13.401    
  13.392      13.495      12.645      12.790      13.188      13.690      13.999      13.797      12.968      11.710    
  10.396      9.3378      8.6426      8.2507      8.0794      8.0346      8.0311      8.0346      8.0794      8.2507    
  8.6426      9.3378      10.396      11.710      12.968      13.797      13.999      13.690      13.188      12.790    
  12.790      12.957      13.401      13.930      14.218      13.955      13.058      11.752      10.420      9.3615    
  8.6715      8.2827      8.1124      8.0671      8.0632      8.0671      8.1124      8.2827      8.6715      9.3615    
  10.420      11.752      13.058      13.955      14.218      13.930      13.401      12.957      13.188      13.401    
  13.935      14.499      14.710      14.286      13.226      11.819      10.459      9.4160      8.7469      8.3692    
  8.2026      8.1558      8.1505      8.1558      8.2026      8.3692      8.7469      9.4160      10.459      11.819    
  13.226      14.286      14.710      14.499      13.935      13.401      13.690      13.930      14.499      15.023    
  15.084      14.459      13.241      11.776      10.444      9.4636      8.8404      8.4865      8.3270      8.2775    