unknown system                          
   1.00000000000000     
     3.300000    0.000000    0.000000
     0.000000    3.300000    0.000000
     0.000000    0.000000    3.300000
   Ta
     2
Direct
  0.000000  0.000000  0.000000
  0.500000  0.500000  0.500000
 
   28   28   28
 0.15340275277E+02 0.14837305608E+02 0.13692813659E+02 0.12645292022E+02 0.12127550358E+02
 0.11964872386E+02 0.11683190022E+02 0.11009560619E+02 0.10056460820E+02 0.91270730368E+01
 0.84460457226E+01 0.80542476952E+01 0.78856145864E+01 0.78497113108E+01 0.78511753386E+01
 0.78497113108E+01 0.78856145864E+01 0.80542476952E+01 0.84460457226E+01 0.91270730368E+01
 0.10056460820E+02 0.11009560619E+02 0.11683190022E+02 0.11964872386E+02 0.12127550358E+02
 0.12645292022E+02 0.13692813659E+02 0.14837305608E+02 0.14837305608E+02 0.14443690888E+02
 0.13563154935E+02 0.12789816782E+02 0.12433138700E+02 0.12285924646E+02 0.11924924945E+02
 0.11152465515E+02 0.10129041037E+02 0.91663376679E+01 0.84749420117E+01 0.80797234100E+01
 0.79093804238E+01 0.78720741280E+01 0.78729138122E+01 0.78720741280E+01 0.79093804238E+01
 0.80797234100E+01 0.84749420117E+01 0.91663376679E+01 0.10129041037E+02 0.11152465515E+02
 0.11924924945E+02 0.12285924646E+02 0.12433138700E+02 0.12789816782E+02 0.13563154935E+02
 0.14443690888E+02 0.13692813659E+02 0.13563154935E+02 0.13315462662E+02 0.13188123429E+02
 0.13192799043E+02 0.13053862819E+02 0.12483190878E+02 0.11470140542E+02 0.10286884502E+02
 0.92569216563E+01 0.85499152325E+01 0.81503711675E+01 0.79773480087E+01 0.79365698722E+01
 0.79356729588E+01 0.79365698722E+01 0.79773480087E+01 0.81503711675E+01 0.85499152325E+01
 0.92569216563E+01 0.10286884502E+02 0.11470140542E+02 0.12483190878E+02 0.13053862819E+02
 0.13192799043E+02 0.13188123429E+02 0.13315462662E+02 0.13563154935E+02 0.12645292022E+02
 0.12789816782E+02 0.13188123429E+02 0.13690209043E+02 0.13999380039E+02 0.13796791616E+02
 0.12968094321E+02 0.11709691057E+02 0.10396063264E+02 0.93377537210E+01 0.86425577935E+01
 0.82507249193E+01 0.80793678571E+01 0.80346119615E+01 0.80311465252E+01 0.80346119615E+01
 0.80793678571E+01 0.82507249193E+01 0.86425577935E+01 0.93377537210E+01 0.10396063264E+02
 0.11709691057E+02 0.12968094321E+02 0.13796791616E+02 0.13999380039E+02 0.13690209043E+02
 0.13188123429E+02 0.12789816782E+02 0.12127550358E+02 0.12433138700E+02 0.13192799043E+02
 0.13999380039E+02 0.14380078322E+02 0.14039249944E+02 0.13018858719E+02 0.11652969488E+02
 0.10346887073E+02 0.93570655121E+01 0.87217873145E+01 0.83603275340E+01 0.81986631137E+01
 0.81503868743E+01 0.81436726774E+01 0.81503868743E+01 0.81986631137E+01 0.83603275340E+01
 0.87217873145E+01 0.93570655121E+01 0.10346887073E+02 0.11652969488E+02 0.13018858719E+02
 0.14039249944E+02 0.14380078322E+02 0.13999380039E+02 0.13192799043E+02 0.12433138700E+02
 0.11964872386E+02 0.12285924646E+02 0.13053862819E+02 0.13796791616E+02 0.14039249944E+02
 0.13566919574E+02 0.12517595551E+02 0.11253048887E+02 0.10123749471E+02 0.93006604173E+01
 0.87668622196E+01 0.84589885352E+01 0.83136534840E+01 0.82616748493E+01 0.82509014967E+01
 0.82616748493E+01 0.83136534840E+01 0.84589885352E+01 0.87668622196E+01 0.93006604173E+01
 0.10123749471E+02 0.11253048887E+02 0.12517595551E+02 0.13566919574E+02 0.14039249944E+02
 0.13796791616E+02 0.13053862819E+02 0.12285924646E+02 0.11683190022E+02 0.11924924945E+02
 0.12483190878E+02 0.12968094321E+02 0.13018858719E+02 0.12517595551E+02 0.11624643751E+02
 0.10636949259E+02 0.97962936132E+01 0.91844924637E+01 0.87742744864E+01 0.85303422002E+01
 0.84018964896E+01 0.83441975513E+01 0.83283192039E+01 0.83441975513E+01 0.84018964896E+01
 0.85303422002E+01 0.87742744864E+01 0.91844924637E+01 0.97962936132E+01 0.10636949259E+02
 0.11624643751E+02 0.12517595551E+02 0.13018858719E+02 0.12968094321E+02 0.12483190878E+02
 0.11924924945E+02 0.11009560619E+02 0.11152465515E+02 0.11470140542E+02 0.11709691057E+02
 0.11652969488E+02 0.11253048887E+02 0.10636949259E+02 0.99941262608E+01 0.94514860867E+01
 0.90369544953E+01 0.87498175654E+01 0.85629454947E+01 0.84452137096E+01 0.83784896848E+01
 0.83565813508E+01 0.83784896848E+01 0.84452137096E+01 0.85629454947E+01 0.87498175654E+01
 0.90369544953E+01 0.94514860867E+01 0.99941262608E+01 0.10636949259E+02 0.11253048887E+02
 0.11652969488E+02 0.11709691057E+02 0.11470140542E+02 0.11152465515E+02 0.10056460820E+02
 0.10129041037E+02 0.10286884502E+02 0.10396063264E+02 0.10346887073E+02 0.10123749471E+02
 0.97962936132E+01 0.94514860867E+01 0.91392917334E+01 0.88890782294E+01 0.86985653640E+01
 0.85501619254E+01 0.84342747943E+01 0.83563009221E+01 0.83283192039E+01 0.83563009221E+01
 0.84342747943E+01 0.85501619254E+01 0.86985653640E+01 0.88890782294E+01 0.91392917334E+01
 0.94514860867E+01 0.97962936132E+01 0.10123749471E+02 0.10346887073E+02 0.10396063264E+02
 0.10286884502E+02 0.10129041037E+02 0.91270730368E+01 0.91663376679E+01 0.92569216563E+01
 0.93377537210E+01 0.93570655121E+01 0.93006604173E+01 0.91844924637E+01 0.90369544953E+01
 0.88890782294E+01 0.87519322327E+01 0.86206971413E+01 0.84908845750E+01 0.83711668907E+01
 0.82834391176E+01 0.82509014967E+01 0.82834391176E+01 0.83711668907E+01 0.84908845750E+01
 0.86206971413E+01 0.87519322327E+01 0.88890782294E+01 0.90369544953E+01 0.91844924637E+01
 0.93006604173E+01 0.93570655121E+01 0.93377537210E+01 0.92569216563E+01 0.91663376679E+01
 0.84460457226E+01 0.84749420117E+01 0.85499152325E+01 0.86425577935E+01 0.87217873145E+01
 0.87668622196E+01 0.87742744864E+01 0.87498175654E+01 0.86985653640E+01 0.86206971413E+01
 0.85158790998E+01 0.83918388295E+01 0.82692713259E+01 0.81777292116E+01 0.81436726774E+01
 0.81777292116E+01 0.82692713259E+01 0.83918388295E+01 0.85158790998E+01 0.86206971413E+01
 0.86985653640E+01 0.87498175654E+01 0.87742744864E+01 0.87668622196E+01 0.87217873145E+01
 0.86425577935E+01 0.85499152325E+01 0.84749420117E+01 0.80542476952E+01 0.80797234100E+01
 0.81503711675E+01 0.82507249193E+01 0.83603275340E+01 0.84589885352E+01 0.85303422002E+01
 0.85629454947E+01 0.85501619254E+01 0.84908845750E+01 0.83918388295E+01 0.82697700225E+01
 0.81505121528E+01 0.80632139628E+01 0.80311465252E+01 0.80632139628E+01 0.81505121528E+01
 0.82697700225E+01 0.83918388295E+01 0.84908845750E+01 0.85501619254E+01 0.85629454947E+01
 0.85303422002E+01 0.84589885352E+01 0.83603275340E+01 0.82507249193E+01 0.81503711675E+01
 0.80797234100E+01 0.78856145864E+01 0.79093804238E+01 0.79773480087E+01 0.80793678571E+01
 0.81986631137E+01 0.83136534840E+01 0.84018964896E+01 0.84452137096E+01 0.84342747943E+01
 0.83711668907E+01 0.82692713259E+01 0.81505121528E+01 0.80406071024E+01 0.79634100893E+01
 0.79356729588E+01 0.79634100893E+01 0.80406071024E+01 0.81505121528E+01 0.82692713259E+01
 0.83711668907E+01 0.84342747943E+01 0.84452137096E+01 0.84018964896E+01 0.83136534840E+01
 0.81986631137E+01 0.80793678571E+01 0.79773480087E+01 0.79093804238E+01 0.78497113108E+01
 0.78720741280E+01 0.79365698722E+01 0.80346119615E+01 0.81503868743E+01 0.82616748493E+01
 0.83441975513E+01 0.83784896848E+01 0.83563009221E+01 0.82834391176E+01 0.81777292116E+01
 0.80632139628E+01 0.79634100893E+01 0.78964033784E+01 0.78729138122E+01 0.78964033784E+01
 0.79634100893E+01 0.80632139628E+01 0.81777292116E+01 0.82834391176E+01 0.83563009221E+01
 0.83784896848E+01 0.83441975513E+01 0.82616748493E+01 0.81503868743E+01 0.80346119615E+01
 0.79365698722E+01 0.78720741280E+01 0.78511753386E+01 0.78729138122E+01 0.79356729588E+01
 0.80311465252E+01 0.81436726774E+01 0.82509014967E+01 0.83283192039E+01 0.83565813508E+01
 0.83283192039E+01 0.82509014967E+01 0.81436726774E+01 0.80311465252E+01 0.79356729588E+01
 0.78729138122E+01 0.78511753386E+01 0.78729138122E+01 0.79356729588E+01 0.80311465252E+01
 0.81436726774E+01 0.82509014967E+01 0.83283192039E+01 0.83565813508E+01 0.83283192039E+01
 0.82509014967E+01 0.81436726774E+01 0.80311465252E+01 0.79356729588E+01 0.78729138122E+01
 0.78497113108E+01 0.78720741280E+01 0.79365698722E+01 0.80346119615E+01 0.81503868743E+01
 0.82616748493E+01 0.83441975513E+01 0.83784896848E+01 0.83563009221E+01 0.82834391176E+01
 0.81777292116E+01 0.80632139628E+01 0.79634100893E+01 0.78964033784E+01 0.78729138122E+01
 0.78964033784E+01 0.79634100893E+01 0.80632139628E+01 0.81777292116E+01 0.82834391176E+01
 0.83563009221E+01 0.83784896848E+01 0.83441975513E+01 0.82616748493E+01 0.81503868743E+01
 0.80346119615E+01 0.79365698722E+01 0.78720741280E+01 0.78856145864E+01 0.79093804238E+01
 0.79773480087E+01 0.80793678571E+01 0.81986631137E+01 0.83136534840E+01 0.84018964896E+01
 0.84452137096E+01 0.84342747943E+01 0.83711668907E+01 0.82692713259E+01 0.81505121528E+01
 0.80406071024E+01 0.79634100893E+01 0.79356729588E+01 0.79634100893E+01 0.80406071024E+01
 0.81505121528E+01 0.82692713259E+01 0.83711668907E+01 0.84342747943E+01 0.84452137096E+01
 0.84018964896E+01 0.83136534840E+01 0.81986631137E+01 0.80793678571E+01 0.79773480087E+01
 0.79093804238E+01 0.80542476952E+01 0.80797234100E+01 0.81503711675E+01 0.82507249193E+01
 0.83603275340E+01 0.84589885352E+01 0.85303422002E+01 0.85629454947E+01 0.85501619254E+01
 0.84908845750E+01 0.83918388295E+01 0.82697700225E+01 0.81505121528E+01 0.80632139628E+01
 0.80311465252E+01 0.80632139628E+01 0.81505121528E+01 0.82697700225E+01 0.83918388295E+01
 0.84908845750E+01 0.85501619254E+01 0.85629454947E+01 0.85303422002E+01 0.84589885352E+01
 0.83603275340E+01 0.82507249193E+01 0.81503711675E+01 0.80797234100E+01 0.84460457226E+01
 0.84749420117E+01 0.85499152325E+01 0.86425577935E+01 0.87217873145E+01 0.87668622196E+01
 0.87742744864E+01 0.87498175654E+01 0.86985653640E+01 0.86206971413E+01 0.85158790998E+01
 0.83918388295E+01 0.82692713259E+01 0.81777292116E+01 0.81436726774E+01 0.81777292116E+01
 0.82692713259E+01 0.83918388295E+01 0.85158790998E+01 0.86206971413E+01 0.86985653640E+01
 0.87498175654E+01 0.87742744864E+01 0.87668622196E+01 0.87217873145E+01 0.86425577935E+01
 0.85499152325E+01 0.84749420117E+01 0.91270730368E+01 0.91663376679E+01 0.92569216563E+01
 0.93377537210E+01 0.93570655121E+01 0.93006604173E+01 0.91844924637E+01 0.90369544953E+01
 0.88890782294E+01 0.87519322327E+01 0.86206971413E+01 0.84908845750E+01 0.83711668907E+01
 0.82834391176E+01 0.82509014967E+01 0.82834391176E+01 0.83711668907E+01 0.84908845750E+01
 0.86206971413E+01 0.87519322327E+01 0.88890782294E+01 0.90369544953E+01 0.91844924637E+01
 0.93006604173E+01 0.93570655121E+01 0.93377537210E+01 0.92569216563E+01 0.91663376679E+01
 0.10056460820E+02 0.10129041037E+02 0.10286884502E+02 0.10396063264E+02 0.10346887073E+02
 0.10123749471E+02 0.97962936132E+01 0.94514860867E+01 0.91392917334E+01 0.88890782294E+01
 0.86985653640E+01 0.85501619254E+01 0.84342747943E+01 0.83563009221E+01 0.83283192039E+01
 0.83563009221E+01 0.84342747943E+01 0.85501619254E+01 0.86985653640E+01 0.88890782294E+01
 0.91392917334E+01 0.94514860867E+01 0.97962936132E+01 0.10123749471E+02 0.10346887073E+02
 0.10396063264E+02 0.10286884502E+02 0.10129041037E+02 0.11009560619E+02 0.11152465515E+02
 0.11470140542E+02 0.11709691057E+02 0.11652969488E+02 0.11253048887E+02 0.10636949259E+02
 0.99941262608E+01 0.94514860867E+01 0.90369544953E+01 0.87498175654E+01 0.85629454947E+01
 0.84452137096E+01 0.83784896848E+01 0.83565813508E+01 0.83784896848E+01 0.84452137096E+01
 0.85629454947E+01 0.87498175654E+01 0.90369544953E+01 0.94514860867E+01 0.99941262608E+01
 0.10636949259E+02 0.11253048887E+02 0.11652969488E+02 0.11709691057E+02 0.11470140542E+02
 0.11152465515E+02 0.11683190022E+02 0.11924924945E+02 0.12483190878E+02 0.12968094321E+02
 0.13018858719E+02 0.12517595551E+02 0.11624643751E+02 0.10636949259E+02 0.97962936132E+01
 0.91844924637E+01 0.87742744864E+01 0.85303422002E+01 0.84018964896E+01 0.83441975513E+01
 0.83283192039E+01 0.83441975513E+01 0.84018964896E+01 0.85303422002E+01 0.87742744864E+01
 0.91844924637E+01 0.97962936132E+01 0.10636949259E+02 0.11624643751E+02 0.12517595551E+02
 0.13018858719E+02 0.12968094321E+02 0.12483190878E+02 0.11924924945E+02 0.11964872386E+02
 0.12285924646E+02 0.13053862819E+02 0.13796791616E+02 0.14039249944E+02 0.13566919574E+02
 0.12517595551E+02 0.11253048887E+02 0.10123749471E+02 0.93006604173E+01 0.87668622196E+01
 0.84589885352E+01 0.83136534840E+01 0.82616748493E+01 0.82509014967E+01 0.82616748493E+01
 0.83136534840E+01 0.84589885352E+01 0.87668622196E+01 0.93006604173E+01 0.10123749471E+02
 0.11253048887E+02 0.12517595551E+02 0.13566919574E+02 0.14039249944E+02 0.13796791616E+02
 0.13053862819E+02 0.12285924646E+02 0.12127550358E+02 0.12433138700E+02 0.13192799043E+02
 0.13999380039E+02 0.14380078322E+02 0.14039249944E+02 0.13018858719E+02 0.11652969488E+02
 0.10346887073E+02 0.93570655121E+01 0.87217873145E+01 0.83603275340E+01 0.81986631137E+01
 0.81503868743E+01 0.81436726774E+01 0.81503868743E+01 0.81986631137E+01 0.83603275340E+01
 0.87217873145E+01 0.93570655121E+01 0.10346887073E+02 0.11652969488E+02 0.13018858719E+02
 0.14039249944E+02 0.14380078322E+02 0.13999380039E+02 0.13192799043E+02 0.12433138700E+02
 0.12645292022E+02 0.12789816782E+02 0.13188123429E+02 0.13690209043E+02 0.13999380039E+02
 0.13796791616E+02 0.12968094321E+02 0.11709691057E+02 0.10396063264E+02 0.93377537210E+01
 0.86425577935E+01 0.82507249193E+01 0.80793678571E+01 0.80346119615E+01 0.80311465252E+01
 0.80346119615E+01 0.80793678571E+01 0.82507249193E+01 0.86425577935E+01 0.93377537210E+01
 0.10396063264E+02 0.11709691057E+02 0.12968094321E+02 0.13796791616E+02 0.13999380039E+02
 0.13690209043E+02 0.13188123429E+02 0.12789816782E+02 0.13692813659E+02 0.13563154935E+02
 0.13315462662E+02 0.13188123429E+02 0.13192799043E+02 0.13053862819E+02 0.12483190878E+02
 0.11470140542E+02 0.10286884502E+02 0.92569216563E+01 0.85499152325E+01 0.81503711675E+01
 0.79773480087E+01 0.79365698722E+01 0.79356729588E+01 0.79365698722E+01 0.79773480087E+01
 0.81503711675E+01 0.85499152325E+01 0.92569216563E+01 0.10286884502E+02 0.11470140542E+02
 0.12483190878E+02 0.13053862819E+02 0.13192799043E+02 0.13188123429E+02 0.13315462662E+02
 0.13563154935E+02 0.14837305608E+02 0.14443690888E+02 0.13563154935E+02 0.12789816782E+02
 0.12433138700E+02 0.12285924646E+02 0.11924924945E+02 0.11152465515E+02 0.10129041037E+02
 0.91663376679E+01 0.84749420117E+01 0.80797234100E+01 0.79093804238E+01 0.78720741280E+01
 0.78729138122E+01 0.78720741280E+01 0.79093804238E+01 0.80797234100E+01 0.84749420117E+01
 0.91663376679E+01 0.10129041037E+02 0.11152465515E+02 0.11924924945E+02 0.12285924646E+02
 0.12433138700E+02 0.12789816782E+02 0.13563154935E+02 0.14443690888E+02 0.14837305608E+02
 0.14443690888E+02 0.13563154935E+02 0.12789816782E+02 0.12433138700E+02 0.12285924646E+02
 0.11924924945E+02 0.11152465515E+02 0.10129041037E+02 0.91663376679E+01 0.84749420117E+01
 0.80797234100E+01 0.79093804238E+01 0.78720741280E+01 0.78729138122E+01 0.78720741280E+01
 0.79093804238E+01 0.80797234100E+01 0.84749420117E+01 0.91663376679E+01 0.10129041037E+02
 0.11152465515E+02 0.11924924945E+02 0.12285924646E+02 0.12433138700E+02 0.12789816782E+02
 0.13563154935E+02 0.14443690888E+02 0.14443690888E+02 0.14145885963E+02 0.13495176897E+02
 0.12956580488E+02 0.12730895477E+02 0.12585126299E+02 0.12144569762E+02 0.11279991672E+02
 0.10193716317E+02 0.92029001277E+01 0.85037774354E+01 0.81062304472E+01 0.79346765986E+01
 0.78961465866E+01 0.78964033784E+01 0.78961465866E+01 0.79346765986E+01 0.81062304472E+01
 0.85037774354E+01 0.92029001277E+01 0.10193716317E+02 0.11279991672E+02 0.12144569762E+02
 0.12585126299E+02 0.12730895477E+02 0.12956580488E+02 0.13495176897E+02 0.14145885963E+02
 0.13563154935E+02 0.13495176897E+02 0.13391638019E+02 0.13400903282E+02 0.13463161233E+02
 0.13293293287E+02 0.12645112373E+02 0.11558572667E+02 0.10332002587E+02 0.92870523574E+01
 0.85787066987E+01 0.81794553665E+01 0.80063989103E+01 0.79648010719E+01 0.79634100893E+01
 0.79648010719E+01 0.80063989103E+01 0.81794553665E+01 0.85787066987E+01 0.92870523574E+01
 0.10332002587E+02 0.11558572667E+02 0.12645112373E+02 0.13293293287E+02 0.13463161233E+02
 0.13400903282E+02 0.13391638019E+02 0.13495176897E+02 0.12789816782E+02 0.12956580488E+02
 0.13400903282E+02 0.13929559304E+02 0.14217866263E+02 0.13954886898E+02 0.13058150951E+02
 0.11752316908E+02 0.10419709263E+02 0.93614740675E+01 0.86714789637E+01 0.82826600026E+01
 0.81123762435E+01 0.80671185382E+01 0.80632139628E+01 0.80671185382E+01 0.81123762435E+01
 0.82826600026E+01 0.86714789637E+01 0.93614740675E+01 0.10419709263E+02 0.11752316908E+02
 0.13058150951E+02 0.13954886898E+02 0.14217866263E+02 0.13929559304E+02 0.13400903282E+02
 0.12956580488E+02 0.12433138700E+02 0.12730895477E+02 0.13463161233E+02 0.14217866263E+02
 0.14528142317E+02 0.14117124239E+02 0.13047054589E+02 0.11660472293E+02 0.10356317833E+02
 0.93774479221E+01 0.87507751324E+01 0.83939984686E+01 0.82337463913E+01 0.81849277701E+01
 0.81777292116E+01 0.81849277701E+01 0.82337463913E+01 0.83939984686E+01 0.87507751324E+01
 0.93774479221E+01 0.10356317833E+02 0.11660472293E+02 0.13047054589E+02 0.14117124239E+02
 0.14528142317E+02 0.14217866263E+02 0.13463161233E+02 0.12730895477E+02 0.12285924646E+02
 0.12585126299E+02 0.13293293287E+02 0.13954886898E+02 0.14117124239E+02 0.13586282561E+02
 0.12509813060E+02 0.11245191571E+02 0.10129731000E+02 0.93210643926E+01 0.87958102222E+01
 0.84923634204E+01 0.83477951258E+01 0.82948378200E+01 0.82834391176E+01 0.82948378200E+01
 0.83477951258E+01 0.84923634204E+01 0.87958102222E+01 0.93210643926E+01 0.10129731000E+02
 0.11245191571E+02 0.12509813060E+02 0.13586282561E+02 0.14117124239E+02 0.13954886898E+02
 0.13293293287E+02 0.12585126299E+02 0.11924924945E+02 0.12144569762E+02 0.12645112373E+02
 0.13058150951E+02 0.13047054589E+02 0.12509813060E+02 0.11608809245E+02 0.10631573042E+02
 0.98066362868E+01 0.92061232693E+01 0.88025677897E+01 0.85611970212E+01 0.84322383424E+01
 0.83729601022E+01 0.83563009221E+01 0.83729601022E+01 0.84322383424E+01 0.85611970212E+01
 0.88025677897E+01 0.92061232693E+01 0.98066362868E+01 0.10631573042E+02 0.11608809245E+02
 0.12509813060E+02 0.13047054589E+02 0.13058150951E+02 0.12645112373E+02 0.12144569762E+02
 0.11152465515E+02 0.11279991672E+02 0.11558572667E+02 0.11752316908E+02 0.11660472293E+02
 0.11245191571E+02 0.10631573042E+02 0.10000011049E+02 0.94678174055E+01 0.90600262810E+01
 0.87762622026E+01 0.85895021773E+01 0.84699783485E+01 0.84012461269E+01 0.83784896848E+01
 0.84012461269E+01 0.84699783485E+01 0.85895021773E+01 0.87762622026E+01 0.90600262810E+01
 0.94678174055E+01 0.10000011049E+02 0.10631573042E+02 0.11245191571E+02 0.11660472293E+02
 0.11752316908E+02 0.11558572667E+02 0.11279991672E+02 0.10129041037E+02 0.10193716317E+02
 0.10332002587E+02 0.10419709263E+02 0.10356317833E+02 0.10129731000E+02 0.98066362868E+01
 0.94678174055E+01 0.91601954015E+01 0.89124672164E+01 0.87218257577E+01 0.85714613742E+01
 0.84529990607E+01 0.83729601022E+01 0.83441975513E+01 0.83729601022E+01 0.84529990607E+01
 0.85714613742E+01 0.87218257577E+01 0.89124672164E+01 0.91601954015E+01 0.94678174055E+01
 0.98066362868E+01 0.10129731000E+02 0.10356317833E+02 0.10419709263E+02 0.10332002587E+02
 0.10193716317E+02 0.91663376679E+01 0.92029001277E+01 0.92870523574E+01 0.93614740675E+01
 0.93774479221E+01 0.93210643926E+01 0.92061232693E+01 0.90600262810E+01 0.89124672164E+01
 0.87738754427E+01 0.86398652055E+01 0.85068625399E+01 0.83843798540E+01 0.82948378200E+01
 0.82616748493E+01 0.82948378200E+01 0.83843798540E+01 0.85068625399E+01 0.86398652055E+01
 0.87738754427E+01 0.89124672164E+01 0.90600262810E+01 0.92061232693E+01 0.93210643926E+01
 0.93774479221E+01 0.93614740675E+01 0.92870523574E+01 0.92029001277E+01 0.84749420117E+01
 0.85037774354E+01 0.85787066987E+01 0.86714789637E+01 0.87507751324E+01 0.87958102222E+01
 0.88025677897E+01 0.87762622026E+01 0.87218257577E+01 0.86398652055E+01 0.85308207414E+01
 0.84031531950E+01 0.82779764400E+01 0.81849277701E+01 0.81503868743E+01 0.81849277701E+01
 0.82779764400E+01 0.84031531950E+01 0.85308207414E+01 0.86398652055E+01 0.87218257577E+01
 0.87762622026E+01 0.88025677897E+01 0.87958102222E+01 0.87507751324E+01 0.86714789637E+01
 0.85787066987E+01 0.85037774354E+01 0.80797234100E+01 0.81062304472E+01 0.81794553665E+01
 0.82826600026E+01 0.83939984686E+01 0.84923634204E+01 0.85611970212E+01 0.85895021773E+01
 0.85714613742E+01 0.85068625399E+01 0.84031531950E+01 0.82774860013E+01 0.81557900156E+01
 0.80671185382E+01 0.80346119615E+01 0.80671185382E+01 0.81557900156E+01 0.82774860013E+01
 0.84031531950E+01 0.85068625399E+01 0.85714613742E+01 0.85895021773E+01 0.85611970212E+01
 0.84923634204E+01 0.83939984686E+01 0.82826600026E+01 0.81794553665E+01 0.81062304472E+01
 0.79093804238E+01 0.79346765986E+01 0.80063989103E+01 0.81123762435E+01 0.82337463913E+01
 0.83477951258E+01 0.84322383424E+01 0.84699783485E+01 0.84529990607E+01 0.83843798540E+01
 0.82779764400E+01 0.81557900156E+01 0.80434629650E+01 0.79648010719E+01 0.79365698722E+01
 0.79648010719E+01 0.80434629650E+01 0.81557900156E+01 0.82779764400E+01 0.83843798540E+01
 0.84529990607E+01 0.84699783485E+01 0.84322383424E+01 0.83477951258E+01 0.82337463913E+01
 0.81123762435E+01 0.80063989103E+01 0.79346765986E+01 0.78720741280E+01 0.78961465866E+01
 0.79648010719E+01 0.80671185382E+01 0.81849277701E+01 0.82948378200E+01 0.83729601022E+01
 0.84012461269E+01 0.83729601022E+01 0.82948378200E+01 0.81849277701E+01 0.80671185382E+01
 0.79648010719E+01 0.78961465866E+01 0.78720741280E+01 0.78961465866E+01 0.79648010719E+01
 0.80671185382E+01 0.81849277701E+01 0.82948378200E+01 0.83729601022E+01 0.84012461269E+01
 0.83729601022E+01 0.82948378200E+01 0.81849277701E+01 0.80671185382E+01 0.79648010719E+01
 0.78961465866E+01 0.78729138122E+01 0.78964033784E+01 0.79634100893E+01 0.80632139628E+01
 0.81777292116E+01 0.82834391176E+01 0.83563009221E+01 0.83784896848E+01 0.83441975513E+01
 0.82616748493E+01 0.81503868743E+01 0.80346119615E+01 0.79365698722E+01 0.78720741280E+01
 0.78497113108E+01 0.78720741280E+01 0.79365698722E+01 0.80346119615E+01 0.81503868743E+01
 0.82616748493E+01 0.83441975513E+01 0.83784896848E+01 0.83563009221E+01 0.82834391176E+01
 0.81777292116E+01 0.80632139628E+01 0.79634100893E+01 0.78964033784E+01 0.78720741280E+01
 0.78961465866E+01 0.79648010719E+01 0.80671185382E+01 0.81849277701E+01 0.82948378200E+01
 0.83729601022E+01 0.84012461269E+01 0.83729601022E+01 0.82948378200E+01 0.81849277701E+01
 0.80671185382E+01 0.79648010719E+01 0.78961465866E+01 0.78720741280E+01 0.78961465866E+01
 0.79648010719E+01 0.80671185382E+01 0.81849277701E+01 0.82948378200E+01 0.83729601022E+01
 0.84012461269E+01 0.83729601022E+01 0.82948378200E+01 0.81849277701E+01 0.80671185382E+01
 0.79648010719E+01 0.78961465866E+01 0.79093804238E+01 0.79346765986E+01 0.80063989103E+01
 0.81123762435E+01 0.82337463913E+01 0.83477951258E+01 0.84322383424E+01 0.84699783485E+01
 0.84529990607E+01 0.83843798540E+01 0.82779764400E+01 0.81557900156E+01 0.80434629650E+01
 0.79648010719E+01 0.79365698722E+01 0.79648010719E+01 0.80434629650E+01 0.81557900156E+01
 0.82779764400E+01 0.83843798540E+01 0.84529990607E+01 0.84699783485E+01 0.84322383424E+01
 0.83477951258E+01 0.82337463913E+01 0.81123762435E+01 0.80063989103E+01 0.79346765986E+01
 0.80797234100E+01 0.81062304472E+01 0.81794553665E+01 0.82826600026E+01 0.83939984686E+01
 0.84923634204E+01 0.85611970212E+01 0.85895021773E+01 0.85714613742E+01 0.85068625399E+01
 0.84031531950E+01 0.82774860013E+01 0.81557900156E+01 0.80671185382E+01 0.80346119615E+01
 0.80671185382E+01 0.81557900156E+01 0.82774860013E+01 0.84031531950E+01 0.85068625399E+01
 0.85714613742E+01 0.85895021773E+01 0.85611970212E+01 0.84923634204E+01 0.83939984686E+01
 0.82826600026E+01 0.81794553665E+01 0.81062304472E+01 0.84749420117E+01 0.85037774354E+01
 0.85787066987E+01 0.86714789637E+01 0.87507751324E+01 0.87958102222E+01 0.88025677897E+01
 0.87762622026E+01 0.87218257577E+01 0.86398652055E+01 0.85308207414E+01 0.84031531950E+01
 0.82779764400E+01 0.81849277701E+01 0.81503868743E+01 0.81849277701E+01 0.82779764400E+01
 0.84031531950E+01 0.85308207414E+01 0.86398652055E+01 0.87218257577E+01 0.87762622026E+01
 0.88025677897E+01 0.87958102222E+01 0.87507751324E+01 0.86714789637E+01 0.85787066987E+01
 0.85037774354E+01 0.91663376679E+01 0.92029001277E+01 0.92870523574E+01 0.93614740675E+01
 0.93774479221E+01 0.93210643926E+01 0.92061232693E+01 0.90600262810E+01 0.89124672164E+01
 0.87738754427E+01 0.86398652055E+01 0.85068625399E+01 0.83843798540E+01 0.82948378200E+01
 0.82616748493E+01 0.82948378200E+01 0.83843798540E+01 0.85068625399E+01 0.86398652055E+01
 0.87738754427E+01 0.89124672164E+01 0.90600262810E+01 0.92061232693E+01 0.93210643926E+01
 0.93774479221E+01 0.93614740675E+01 0.92870523574E+01 0.92029001277E+01 0.10129041037E+02
 0.10193716317E+02 0.10332002587E+02 0.10419709263E+02 0.10356317833E+02 0.10129731000E+02
 0.98066362868E+01 0.94678174055E+01 0.91601954015E+01 0.89124672164E+01 0.87218257577E+01
 0.85714613742E+01 0.84529990607E+01 0.83729601022E+01 0.83441975513E+01 0.83729601022E+01
 0.84529990607E+01 0.85714613742E+01 0.87218257577E+01 0.89124672164E+01 0.91601954015E+01
 0.94678174055E+01 0.98066362868E+01 0.10129731000E+02 0.10356317833E+02 0.10419709263E+02
 0.10332002587E+02 0.10193716317E+02 0.11152465515E+02 0.11279991672E+02 0.11558572667E+02
 0.11752316908E+02 0.11660472293E+02 0.11245191571E+02 0.10631573042E+02 0.10000011049E+02
 0.94678174055E+01 0.90600262810E+01 0.87762622026E+01 0.85895021773E+01 0.84699783485E+01
 0.84012461269E+01 0.83784896848E+01 0.84012461269E+01 0.84699783485E+01 0.85895021773E+01
 0.87762622026E+01 0.90600262810E+01 0.94678174055E+01 0.10000011049E+02 0.10631573042E+02
 0.11245191571E+02 0.11660472293E+02 0.11752316908E+02 0.11558572667E+02 0.11279991672E+02
 0.11924924945E+02 0.12144569762E+02 0.12645112373E+02 0.13058150951E+02 0.13047054589E+02
 0.12509813060E+02 0.11608809245E+02 0.10631573042E+02 0.98066362868E+01 0.92061232693E+01
 0.88025677897E+01 0.85611970212E+01 0.84322383424E+01 0.83729601022E+01 0.83563009221E+01
 0.83729601022E+01 0.84322383424E+01 0.85611970212E+01 0.88025677897E+01 0.92061232693E+01
 0.98066362868E+01 0.10631573042E+02 0.11608809245E+02 0.12509813060E+02 0.13047054589E+02
 0.13058150951E+02 0.12645112373E+02 0.12144569762E+02 0.12285924646E+02 0.12585126299E+02
 0.13293293287E+02 0.13954886898E+02 0.14117124239E+02 0.13586282561E+02 0.12509813060E+02
 0.11245191571E+02 0.10129731000E+02 0.93210643926E+01 0.87958102222E+01 0.84923634204E+01
 0.83477951258E+01 0.82948378200E+01 0.82834391176E+01 0.82948378200E+01 0.83477951258E+01
 0.84923634204E+01 0.87958102222E+01 0.93210643926E+01 0.10129731000E+02 0.11245191571E+02
 0.12509813060E+02 0.13586282561E+02 0.14117124239E+02 0.13954886898E+02 0.13293293287E+02
 0.12585126299E+02 0.12433138700E+02 0.12730895477E+02 0.13463161233E+02 0.14217866263E+02
 0.14528142317E+02 0.14117124239E+02 0.13047054589E+02 0.11660472293E+02 0.10356317833E+02
 0.93774479221E+01 0.87507751324E+01 0.83939984686E+01 0.82337463913E+01 0.81849277701E+01
 0.81777292116E+01 0.81849277701E+01 0.82337463913E+01 0.83939984686E+01 0.87507751324E+01
 0.93774479221E+01 0.10356317833E+02 0.11660472293E+02 0.13047054589E+02 0.14117124239E+02
 0.14528142317E+02 0.14217866263E+02 0.13463161233E+02 0.12730895477E+02 0.12789816782E+02
 0.12956580488E+02 0.13400903282E+02 0.13929559304E+02 0.14217866263E+02 0.13954886898E+02
 0.13058150951E+02 0.11752316908E+02 0.10419709263E+02 0.93614740675E+01 0.86714789637E+01
 0.82826600026E+01 0.81123762435E+01 0.80671185382E+01 0.80632139628E+01 0.80671185382E+01
 0.81123762435E+01 0.82826600026E+01 0.86714789637E+01 0.93614740675E+01 0.10419709263E+02
 0.11752316908E+02 0.13058150951E+02 0.13954886898E+02 0.14217866263E+02 0.13929559304E+02
 0.13400903282E+02 0.12956580488E+02 0.13563154935E+02 0.13495176897E+02 0.13391638019E+02
 0.13400903282E+02 0.13463161233E+02 0.13293293287E+02 0.12645112373E+02 0.11558572667E+02
 0.10332002587E+02 0.92870523574E+01 0.85787066987E+01 0.81794553665E+01 0.80063989103E+01
 0.79648010719E+01 0.79634100893E+01 0.79648010719E+01 0.80063989103E+01 0.81794553665E+01
 0.85787066987E+01 0.92870523574E+01 0.10332002587E+02 0.11558572667E+02 0.12645112373E+02
 0.13293293287E+02 0.13463161233E+02 0.13400903282E+02 0.13391638019E+02 0.13495176897E+02
 0.14443690888E+02 0.14145885963E+02 0.13495176897E+02 0.12956580488E+02 0.12730895477E+02
 0.12585126299E+02 0.12144569762E+02 0.11279991672E+02 0.10193716317E+02 0.92029001277E+01
 0.85037774354E+01 0.81062304472E+01 0.79346765986E+01 0.78961465866E+01 0.78964033784E+01
 0.78961465866E+01 0.79346765986E+01 0.81062304472E+01 0.85037774354E+01 0.92029001277E+01
 0.10193716317E+02 0.11279991672E+02 0.12144569762E+02 0.12585126299E+02 0.12730895477E+02
 0.12956580488E+02 0.13495176897E+02 0.14145885963E+02 0.13692813659E+02 0.13563154935E+02
 0.13315462662E+02 0.13188123429E+02 0.13192799043E+02 0.13053862819E+02 0.12483190878E+02
 0.11470140542E+02 0.10286884502E+02 0.92569216563E+01 0.85499152325E+01 0.81503711675E+01
 0.79773480087E+01 0.79365698722E+01 0.79356729588E+01 0.79365698722E+01 0.79773480087E+01
 0.81503711675E+01 0.85499152325E+01 0.92569216563E+01 0.10286884502E+02 0.11470140542E+02
 0.12483190878E+02 0.13053862819E+02 0.13192799043E+02 0.13188123429E+02 0.13315462662E+02
 0.13563154935E+02 0.13563154935E+02 0.13495176897E+02 0.13391638019E+02 0.13400903282E+02
 0.13463161233E+02 0.13293293287E+02 0.12645112373E+02 0.11558572667E+02 0.10332002587E+02
 0.92870523574E+01 0.85787066987E+01 0.81794553665E+01 0.80063989103E+01 0.79648010719E+01
 0.79634100893E+01 0.79648010719E+01 0.80063989103E+01 0.81794553665E+01 0.85787066987E+01
 0.92870523574E+01 0.10332002587E+02 0.11558572667E+02 0.12645112373E+02 0.13293293287E+02
 0.13463161233E+02 0.13400903282E+02 0.13391638019E+02 0.13495176897E+02 0.13315462662E+02
 0.13391638019E+02 0.13621055502E+02 0.13935121100E+02 0.14107252945E+02 0.13839724995E+02