   2   2   0   0
  0.1796850E+02  0.3300000E-09  0.3300000E-09  0.3300000E-09  0.5000000E-15
  1.000000000000000E-004
  CAR 
 unknown system                          
     12.78774468     -3.88211904  301      5.74366938      1.00000000
     -3.882  0.0000E+00  0.0000E+00
     -3.827  0.0000E+00  0.0000E+00
     -3.771  0.0000E+00  0.0000E+00
     -3.715  0.0000E+00  0.0000E+00
     -3.660  0.0000E+00  0.0000E+00
     -3.604  0.0000E+00  0.0000E+00
     -3.549  0.0000E+00  0.0000E+00
     -3.493 -0.8451E-28 -0.4696E-29
     -3.438 -0.6553E-26 -0.3688E-27
     -3.382 -0.4396E-24 -0.2479E-25
     -3.326 -0.2522E-22 -0.1426E-23
     -3.271 -0.1238E-20 -0.7021E-22
     -3.215 -0.5195E-19 -0.2957E-20
     -3.160 -0.1864E-17 -0.1065E-18
     -3.104 -0.5716E-16 -0.3283E-17
     -3.049 -0.1467E-14 -0.8478E-16
     -2.993 -0.3243E-13 -0.1887E-14
     -2.937 -0.6178E-12 -0.3622E-13
     -2.882 -0.1003E-10 -0.5937E-12
     -2.826 -0.1388E-09 -0.8307E-11
     -2.771 -0.1635E-08 -0.9917E-10
     -2.715 -0.1638E-07 -0.1009E-08
     -2.660 -0.1393E-06 -0.8751E-08
     -2.604 -0.1004E-05 -0.6455E-07
     -2.549 -0.6117E-05 -0.4045E-06
     -2.493 -0.3138E-04 -0.2148E-05
     -2.437 -0.1349E-03 -0.9644E-05
     -2.382 -0.4819E-03 -0.3642E-04
     -2.326 -0.1412E-02 -0.1149E-03
     -2.271 -0.3316E-02 -0.2991E-03
     -2.215 -0.5917E-02 -0.6279E-03
     -2.160 -0.6825E-02 -0.1007E-02
     -2.104 -0.4745E-03 -0.1034E-02
     -2.048  0.1990E-01  0.7217E-04
     -1.993  0.5597E-01  0.3182E-02
     -1.937  0.9799E-01  0.8627E-02
     -1.882  0.1268E+00  0.1567E-01
     -1.826  0.1265E+00  0.2270E-01
     -1.771  0.9686E-01  0.2808E-01
     -1.715  0.5338E-01  0.3105E-01
     -1.659  0.1396E-01  0.3183E-01
     -1.604 -0.1277E-01  0.3112E-01
     -1.548 -0.2645E-01  0.2965E-01
     -1.493 -0.2406E-01  0.2831E-01
     -1.437  0.7831E-02  0.2874E-01
     -1.382  0.8511E-01  0.3347E-01
     -1.326  0.2040E+00  0.4481E-01
     -1.271  0.3254E+00  0.6289E-01
     -1.215  0.3900E+00  0.8456E-01
     -1.159  0.3610E+00  0.1046E+00
     -1.104  0.2537E+00  0.1187E+00
     -1.048  0.1226E+00  0.1255E+00
     -0.993  0.1958E-01  0.1266E+00
     -0.937 -0.3172E-01  0.1249E+00
     -0.882 -0.2825E-01  0.1233E+00
     -0.826  0.3004E-01  0.1250E+00
     -0.770  0.1386E+00  0.1327E+00
     -0.715  0.2700E+00  0.1477E+00
     -0.659  0.3697E+00  0.1682E+00
     -0.604  0.3860E+00  0.1897E+00
     -0.548  0.3094E+00  0.2068E+00
     -0.493  0.1810E+00  0.2169E+00
     -0.437  0.5842E-01  0.2201E+00
     -0.381 -0.2043E-01  0.2190E+00
     -0.326 -0.4353E-01  0.2166E+00
     -0.270 -0.5829E-02  0.2163E+00
     -0.215  0.9871E-01  0.2218E+00
     -0.159  0.2577E+00  0.2361E+00
     -0.104  0.4180E+00  0.2593E+00
     -0.048  0.5005E+00  0.2871E+00
      0.008  0.4551E+00  0.3124E+00
      0.063  0.3087E+00  0.3296E+00
      0.119  0.1595E+00  0.3384E+00
      0.174  0.1180E+00  0.3450E+00
      0.230  0.2374E+00  0.3582E+00
      0.285  0.4719E+00  0.3844E+00
      0.341  0.6935E+00  0.4229E+00
      0.396  0.7690E+00  0.4656E+00
      0.452  0.6509E+00  0.5018E+00
      0.508  0.4057E+00  0.5244E+00
      0.563  0.1555E+00  0.5330E+00
      0.619 -0.3577E-02  0.5328E+00
      0.674 -0.3450E-01  0.5309E+00
      0.730  0.5862E-01  0.5341E+00
      0.785  0.2480E+00  0.5479E+00
      0.841  0.4767E+00  0.5744E+00
      0.897  0.6579E+00  0.6110E+00
      0.952  0.7092E+00  0.6504E+00
      1.008  0.6026E+00  0.6839E+00
      1.063  0.3845E+00  0.7052E+00
      1.119  0.1459E+00  0.7133E+00
      1.174 -0.2418E-01  0.7120E+00
      1.230 -0.5825E-01  0.7087E+00
      1.286  0.9990E-01  0.7143E+00
      1.341  0.4954E+00  0.7418E+00
      1.397  0.1119E+01  0.8040E+00
      1.452  0.1843E+01  0.9064E+00
      1.508  0.2422E+01  0.1041E+01
      1.563  0.2606E+01  0.1186E+01
      1.619  0.2301E+01  0.1314E+01
      1.675  0.1651E+01  0.1405E+01
      1.730  0.9447E+00  0.1458E+01
      1.786  0.4393E+00  0.1482E+01
      1.841  0.2445E+00  0.1496E+01
      1.897  0.3414E+00  0.1515E+01
      1.952  0.6655E+00  0.1552E+01
      2.008  0.1144E+01  0.1615E+01
      2.063  0.1662E+01  0.1708E+01
      2.119  0.2038E+01  0.1821E+01
      2.175  0.2094E+01  0.1937E+01
      2.230  0.1785E+01  0.2036E+01
      2.286  0.1267E+01  0.2107E+01
      2.341  0.8353E+00  0.2153E+01
      2.397  0.7737E+00  0.2196E+01
      2.452  0.1197E+01  0.2263E+01
      2.508  0.1957E+01  0.2372E+01
      2.564  0.2687E+01  0.2521E+01
      2.619  0.3009E+01  0.2688E+01
      2.675  0.2779E+01  0.2843E+01
      2.730  0.2165E+01  0.2963E+01
      2.786  0.1511E+01  0.3047E+01
      2.841  0.1113E+01  0.3109E+01
      2.897  0.1094E+01  0.3169E+01
      2.953  0.1405E+01  0.3248E+01
      3.008  0.1880E+01  0.3352E+01
      3.064  0.2318E+01  0.3481E+01
      3.119  0.2558E+01  0.3623E+01
      3.175  0.2536E+01  0.3764E+01
      3.230  0.2287E+01  0.3891E+01
      3.286  0.1894E+01  0.3996E+01
      3.341  0.1442E+01  0.4076E+01
      3.397  0.1006E+01  0.4132E+01
      3.453  0.6595E+00  0.4169E+01
      3.508  0.4693E+00  0.4195E+01
      3.564  0.4722E+00  0.4221E+01
      3.619  0.6505E+00  0.4257E+01
      3.675  0.9247E+00  0.4309E+01
      3.730  0.1169E+01  0.4374E+01
      3.786  0.1249E+01  0.4443E+01
      3.842  0.1094E+01  0.4504E+01
      3.897  0.7558E+00  0.4546E+01
      3.953  0.4158E+00  0.4569E+01
      4.008  0.2992E+00  0.4586E+01
      4.064  0.5523E+00  0.4616E+01
      4.119  0.1164E+01  0.4681E+01
      4.175  0.1991E+01  0.4792E+01
      4.231  0.2855E+01  0.4950E+01
      4.286  0.3628E+01  0.5152E+01
      4.342  0.4216E+01  0.5386E+01
      4.397  0.4526E+01  0.5638E+01
      4.453  0.4498E+01  0.5887E+01
      4.508  0.4189E+01  0.6120E+01
      4.564  0.3773E+01  0.6330E+01
      4.620  0.3423E+01  0.6520E+01
      4.675  0.3203E+01  0.6698E+01
      4.731  0.3081E+01  0.6869E+01
      4.786  0.2997E+01  0.7036E+01
      4.842  0.2900E+01  0.7197E+01
      4.897  0.2748E+01  0.7350E+01
      4.953  0.2525E+01  0.7490E+01
      5.008  0.2270E+01  0.7616E+01
      5.064  0.2083E+01  0.7732E+01
      5.120  0.2092E+01  0.7848E+01
      5.175  0.2366E+01  0.7979E+01
      5.231  0.2826E+01  0.8137E+01
      5.286  0.3273E+01  0.8318E+01
      5.342  0.3556E+01  0.8516E+01
      5.397  0.3725E+01  0.8723E+01
      5.453  0.3944E+01  0.8942E+01
      5.509  0.4232E+01  0.9177E+01
      5.564  0.4356E+01  0.9419E+01
      5.620  0.4054E+01  0.9645E+01
      5.675  0.3343E+01  0.9830E+01
      5.731  0.2551E+01  0.9972E+01
      5.786  0.2046E+01  0.1009E+02
      5.842  0.1934E+01  0.1019E+02
      5.898  0.2040E+01  0.1031E+02
      5.953  0.2121E+01  0.1042E+02
      6.009  0.2073E+01  0.1054E+02
      6.064  0.1949E+01  0.1065E+02
      6.120  0.1837E+01  0.1075E+02
      6.175  0.1772E+01  0.1085E+02
      6.231  0.1747E+01  0.1095E+02
      6.286  0.1748E+01  0.1104E+02
      6.342  0.1742E+01  0.1114E+02
      6.398  0.1653E+01  0.1123E+02
      6.453  0.1404E+01  0.1131E+02
      6.509  0.9964E+00  0.1136E+02
      6.564  0.5495E+00  0.1140E+02
      6.620  0.2443E+00  0.1141E+02
      6.675  0.2117E+00  0.1142E+02
      6.731  0.4502E+00  0.1145E+02
      6.787  0.8179E+00  0.1149E+02
      6.842  0.1108E+01  0.1155E+02
      6.898  0.1172E+01  0.1162E+02
      6.953  0.1010E+01  0.1167E+02
      7.009  0.7468E+00  0.1172E+02
      7.064  0.5255E+00  0.1174E+02
      7.120  0.4116E+00  0.1177E+02
      7.176  0.3925E+00  0.1179E+02
      7.231  0.4341E+00  0.1181E+02
      7.287  0.5132E+00  0.1184E+02
      7.342  0.6091E+00  0.1188E+02
      7.398  0.7026E+00  0.1191E+02
      7.453  0.7970E+00  0.1196E+02
      7.509  0.9149E+00  0.1201E+02
      7.565  0.1048E+01  0.1207E+02
      7.620  0.1126E+01  0.1213E+02
      7.676  0.1065E+01  0.1219E+02
      7.731  0.8676E+00  0.1224E+02
      7.787  0.6518E+00  0.1227E+02
      7.842  0.5745E+00  0.1231E+02
      7.898  0.7308E+00  0.1235E+02
      7.953  0.1115E+01  0.1241E+02
      8.009  0.1644E+01  0.1250E+02
      8.065  0.2172E+01  0.1262E+02
      8.120  0.2513E+01  0.1276E+02
      8.176  0.2485E+01  0.1290E+02
      8.231  0.2033E+01  0.1301E+02
      8.287  0.1297E+01  0.1308E+02
      8.342  0.5747E+00  0.1312E+02
      8.398  0.1735E+00  0.1313E+02
      8.454  0.2706E+00  0.1314E+02
      8.509  0.8438E+00  0.1319E+02
      8.565  0.1666E+01  0.1328E+02
      8.620  0.2378E+01  0.1341E+02
      8.676  0.2657E+01  0.1356E+02
      8.731  0.2396E+01  0.1369E+02
      8.787  0.1767E+01  0.1379E+02
      8.843  0.1098E+01  0.1385E+02
      8.898  0.6760E+00  0.1389E+02
      8.954  0.6248E+00  0.1392E+02
      9.009  0.9155E+00  0.1397E+02
      9.065  0.1453E+01  0.1406E+02
      9.120  0.2135E+01  0.1417E+02
      9.176  0.2840E+01  0.1433E+02
      9.232  0.3402E+01  0.1452E+02
      9.287  0.3651E+01  0.1472E+02
      9.343  0.3503E+01  0.1492E+02
      9.398  0.3042E+01  0.1509E+02
      9.454  0.2480E+01  0.1523E+02
      9.509  0.2032E+01  0.1534E+02
      9.565  0.1800E+01  0.1544E+02
      9.620  0.1739E+01  0.1553E+02
      9.676  0.1712E+01  0.1563E+02
      9.732  0.1583E+01  0.1572E+02
      9.787  0.1312E+01  0.1579E+02
      9.843  0.9969E+00  0.1585E+02
      9.898  0.8076E+00  0.1589E+02
      9.954  0.8477E+00  0.1594E+02
     10.009  0.1068E+01  0.1600E+02
     10.065  0.1329E+01  0.1607E+02
     10.121  0.1545E+01  0.1616E+02
     10.176  0.1747E+01  0.1625E+02
     10.232  0.1995E+01  0.1637E+02
     10.287  0.2247E+01  0.1649E+02
     10.343  0.2373E+01  0.1662E+02
     10.398  0.2316E+01  0.1675E+02
     10.454  0.2219E+01  0.1687E+02
     10.510  0.2344E+01  0.1700E+02
     10.565  0.2808E+01  0.1716E+02
     10.621  0.3400E+01  0.1735E+02
     10.676  0.3701E+01  0.1755E+02
     10.732  0.3413E+01  0.1774E+02
     10.787  0.2590E+01  0.1789E+02
     10.843  0.1567E+01  0.1798E+02
     10.898  0.6961E+00  0.1801E+02
     10.954  0.1515E+00  0.1802E+02
     11.010 -0.8589E-01  0.1802E+02
     11.065 -0.1311E+00  0.1801E+02
     11.121 -0.9761E-01  0.1800E+02
     11.176 -0.5358E-01  0.1800E+02
     11.232 -0.2359E-01  0.1800E+02
     11.287 -0.8586E-02  0.1800E+02
     11.343 -0.2618E-02  0.1800E+02
     11.399 -0.6727E-03  0.1800E+02
     11.454 -0.1463E-03  0.1800E+02
     11.510 -0.2698E-04  0.1800E+02
     11.565 -0.4226E-05  0.1800E+02
     11.621 -0.5631E-06  0.1800E+02
     11.676 -0.6388E-07  0.1800E+02
     11.732 -0.6175E-08  0.1800E+02
     11.788 -0.5090E-09  0.1800E+02
     11.843 -0.3580E-10  0.1800E+02
     11.899 -0.2150E-11  0.1800E+02
     11.954 -0.1103E-12  0.1800E+02
     12.010 -0.4995E-14  0.1800E+02
     12.065  0.0000E+00  0.1800E+02
     12.121  0.0000E+00  0.1800E+02
     12.177  0.0000E+00  0.1800E+02
     12.232  0.0000E+00  0.1800E+02
     12.288  0.0000E+00  0.1800E+02
     12.343  0.0000E+00  0.1800E+02
     12.399  0.0000E+00  0.1800E+02
     12.454  0.0000E+00  0.1800E+02
     12.510  0.0000E+00  0.1800E+02
     12.565  0.0000E+00  0.1800E+02
     12.621  0.0000E+00  0.1800E+02
     12.677  0.0000E+00  0.1800E+02
     12.732  0.0000E+00  0.1800E+02
     12.788  0.0000E+00  0.1800E+02
