    2    2    1    1
  0.1796850E+02  0.3300000E-09  0.3300000E-09  0.3300000E-09  0.5000000E-15
  1.000000000000000E-004
  CAR 
 unknown system                          
   10   20    9
 
  0.6250000E-01  0.6250000E-01  0.6250000E-01  0.1562500E-01
   1       -1.882119
   2        2.136234
   3        2.136234
   4        6.377754
   5        6.377754
   6        6.815324
   7        9.657775
   8        9.657775
   9       10.701067
 
  0.1875000E+00  0.6250000E-01  0.6250000E-01  0.4687500E-01
   1       -1.231287
   2        2.492384
   3        2.604598
   4        6.131828
   5        6.235741
   6        7.330983
   7        8.780341
   8        8.981885
   9       10.077124
 
  0.3125000E+00  0.6250000E-01  0.6250000E-01  0.4687500E-01
   1       -0.054850
   2        3.056415
   3        3.187494
   4        5.999280
   5        6.087385
   6        7.609487
   7        7.673719
   8        8.071114
   9        8.668027
 
  0.4375000E+00  0.6250000E-01  0.6250000E-01  0.4687500E-01
   1        1.386753
   2        2.643208
   3        4.171936
   4        5.288573
   5        6.358408
   6        6.908548
   7        7.124306
   8        7.602678
   9        9.032553
 
  0.1875000E+00  0.1875000E+00  0.6250000E-01  0.4687500E-01
   1       -0.650010
   2        2.766046
   3        3.094236
   4        5.629411
   5        5.890837
   6        7.426275
   7        8.199474
   8        9.142024
   9        9.208402
 
  0.3125000E+00  0.1875000E+00  0.6250000E-01  0.9375000E-01
   1        0.360550
   2        2.983082
   3        3.794951
   4        5.319897
   5        5.575890
   6        6.434324
   7        8.147933
   8        8.616572
   9        9.395692
 
  0.4375000E+00  0.1875000E+00  0.6250000E-01  0.9375000E-01
   1        1.528736
   2        2.542418
   3        4.441567
   4        5.039379
   5        5.538804
   6        5.923642
   7        8.004478
   8        8.169353
   9       10.347370
 
  0.3125000E+00  0.3125000E+00  0.6250000E-01  0.4687500E-01
   1        0.961950
   2        2.602312
   3        4.788934
   4        4.831462
   5        5.527448
   6        5.557625
   7        7.886456
   8        9.470752
   9       10.462879
 
  0.4375000E+00  0.3125000E+00  0.6250000E-01  0.9375000E-01
   1        1.523206
   2        2.061213
   3        4.633408
   4        4.884938
   5        5.670125
   6        5.834673
   7        8.586915
   8        9.290736
   9       10.660531
 
  0.4375000E+00  0.4375000E+00  0.6250000E-01  0.4687500E-01
   1        1.478515
   2        1.641444
   3        4.286662
   4        4.384181
   5        6.809434
   6        6.842261
   7        9.309861
   8        9.757922
   9       10.621085
 
  0.1875000E+00  0.1875000E+00  0.1875000E+00  0.1562500E-01
   1       -0.082301
   2        3.320945
   3        3.320945
   4        5.348685
   5        5.348685
   6        5.867152
   7        9.199893
   8        9.587999
   9       10.598088
 
  0.3125000E+00  0.1875000E+00  0.1875000E+00  0.4687500E-01
   1        0.869843
   2        3.604437
   3        3.720128
   4        4.970332
   5        5.086105
   6        5.240711
   7        9.120368
   8        9.336308
   9       10.298779
 
  0.4375000E+00  0.1875000E+00  0.1875000E+00  0.4687500E-01
   1        1.897143
   2        2.831910
   3        4.180926
   4        4.595478
   5        5.313473
   6        5.566264
   7        8.691033
   8        8.691247
   9       10.625882
 
  0.3125000E+00  0.3125000E+00  0.1875000E+00  0.4687500E-01
   1        1.598556
   2        3.182140
   3        4.590723
   4        4.631812
   5        4.775364
   6        4.920607
   7        9.176242
   8        9.711085
   9       10.249038
 
  0.4375000E+00  0.3125000E+00  0.1875000E+00  0.9375000E-01
   1        2.154170
   2        2.611364
   3        4.417946
   4        4.458073
   5        5.310841
   6        5.495529
   7        9.255390
   8        9.561705
   9       10.623731
 
  0.4375000E+00  0.4375000E+00  0.1875000E+00  0.4687500E-01
   1        2.170591
   2        2.286104
   3        4.192954
   4        4.258013
   5        6.128662
   6        6.253594
   7        9.734142
   8        9.989257
   9       10.678723
 
  0.3125000E+00  0.3125000E+00  0.3125000E+00  0.1562500E-01
   1        2.579930
   2        3.436668
   3        4.382671
   4        4.382671
   5        4.632376
   6        4.632376
   7       10.239248
   8       10.239248
   9       10.253960
 
  0.4375000E+00  0.3125000E+00  0.3125000E+00  0.4687500E-01
   1        3.044739
   2        3.142106
   3        4.323519
   4        4.439106
   5        4.739276
   6        5.172350
   7       10.028406
   8       10.112362
   9       10.649027
 
  0.4375000E+00  0.4375000E+00  0.3125000E+00  0.4687500E-01
   1        3.252988
   2        3.348925
   3        4.152968
   4        4.308023
   5        5.219728
   6        5.467936
   7       10.346469
   8       10.426815
   9       10.764581
 
  0.4375000E+00  0.4375000E+00  0.4375000E+00  0.1562500E-01
   1        3.871683
   2        4.320949
   3        4.320949
   4        4.621189
   5        4.770229
   6        4.770229
   7       10.776493
   8       10.787744
   9       10.787745
