       N       E                     dE             d eps       ncg     rms          rms(c)
DAV:   1    -0.233912999052E+02   -0.23391E+02   -0.85946E+01   392   0.398E+01    0.319E+00
DAV:   2    -0.237366494913E+02   -0.34535E+00   -0.22721E+00   512   0.103E+01    0.109E+00
DAV:   3    -0.237211836012E+02    0.15466E-01   -0.63220E-02   449   0.167E+00    0.273E-01
DAV:   4    -0.237213735914E+02   -0.18999E-03   -0.31836E-03   506   0.416E-01    0.593E-02
DAV:   5    -0.237211680143E+02    0.20558E-03   -0.50044E-04   433   0.160E-01    0.225E-03
DAV:   6    -0.237211670485E+02    0.96582E-06   -0.24221E-06   229   0.127E-02
   1 F= -.23721167E+02 E0= -.23723977E+02  d E =0.842894E-02
