 running on    1 nodes
 distr:  one band on    1 nodes,    1 groups
 vasp.5.2.12 11Nov11 complex                                                    
  
 POSCAR found :  1 types and       2 ions
 LDA part: xc-table for Pade appr. of Perdew
 POSCAR, INCAR and KPOINTS ok, starting setup
 WARNING: small aliasing (wrap around) errors must be expected
 FFT: planning ...(           1 )
 WAVECAR not read
 entering main loop
       N       E                     dE             d eps       ncg     rms          rms(c)
DAV:   1     0.380693591653E+00    0.38069E+00   -0.33340E+03   638   0.658E+02
DAV:   2    -0.238256292677E+02   -0.24206E+02   -0.23114E+02   980   0.107E+02
DAV:   3    -0.246783026447E+02   -0.85267E+00   -0.80112E+00   889   0.173E+01
DAV:   4    -0.246885453257E+02   -0.10243E-01   -0.10234E-01  1023   0.169E+00
DAV:   5    -0.246885604118E+02   -0.15086E-04   -0.15084E-04   862   0.576E-02    0.461E+00
DAV:   6    -0.240191969224E+02    0.66936E+00   -0.40327E-01   674   0.450E+00    0.247E+00
DAV:   7    -0.237215304503E+02    0.29767E+00   -0.59928E-01   694   0.530E+00    0.252E-01
DAV:   8    -0.237209755206E+02    0.55493E-03   -0.76889E-03   902   0.641E-01    0.104E-01
DAV:   9    -0.237205219871E+02    0.45353E-03   -0.12308E-03   782   0.243E-01    0.488E-03
DAV:  10    -0.237205123518E+02    0.96352E-05   -0.78092E-06   572   0.204E-02
   1 F= -.23720512E+02 E0= -.23718426E+02  d E =-.626004E-02
 writing wavefunctions
NPROCS =  1
