<?xml version="1.0" encoding="ISO-8859-1"?>
<modeling>
 <generator>
  <i name="program" type="string">vasp </i>
  <i name="version" type="string">5.2.12  </i>
  <i name="subversion" type="string">11Nov11 complex                                                      parallel </i>
  <i name="platform" type="string">LinuxIFC </i>
  <i name="date" type="string">2012 10 23 </i>
  <i name="time" type="string">21:10:08 </i>
 </generator>
 <incar>
  <i type="string" name="PREC">normal</i>
  <i name="ENCUT">    300.00000000</i>
  <i type="int" name="NBANDS">     9</i>
 </incar>
 <kpoints>
  <generation param="Monkhorst-Pack">
   <v type="int" name="divisions">       8        8        8 </v>
   <v name="usershift">      0.00000000       0.00000000       0.00000000 </v>
   <v name="genvec1">      0.12500000       0.00000000       0.00000000 </v>
   <v name="genvec2">      0.00000000       0.12500000       0.00000000 </v>
   <v name="genvec3">      0.00000000       0.00000000       0.12500000 </v>
   <v name="shift">      0.50000000       0.50000000       0.50000000 </v>
  </generation>
  <varray name="kpointlist" >
   <v>       0.06250000       0.06250000       0.06250000 </v>
   <v>       0.18750000       0.06250000       0.06250000 </v>
   <v>       0.31250000       0.06250000       0.06250000 </v>
   <v>       0.43750000       0.06250000       0.06250000 </v>
   <v>       0.18750000       0.18750000       0.06250000 </v>
   <v>       0.31250000       0.18750000       0.06250000 </v>
   <v>       0.43750000       0.18750000       0.06250000 </v>
   <v>       0.31250000       0.31250000       0.06250000 </v>
   <v>       0.43750000       0.31250000       0.06250000 </v>
   <v>       0.43750000       0.43750000       0.06250000 </v>
   <v>       0.18750000       0.18750000       0.18750000 </v>
   <v>       0.31250000       0.18750000       0.18750000 </v>
   <v>       0.43750000       0.18750000       0.18750000 </v>
   <v>       0.31250000       0.31250000       0.18750000 </v>
   <v>       0.43750000       0.31250000       0.18750000 </v>
   <v>       0.43750000       0.43750000       0.18750000 </v>
   <v>       0.31250000       0.31250000       0.31250000 </v>
   <v>       0.43750000       0.31250000       0.31250000 </v>
   <v>       0.43750000       0.43750000       0.31250000 </v>
   <v>       0.43750000       0.43750000       0.43750000 </v>
  </varray>
  <varray name="weights" >
   <v>       0.01562500 </v>
   <v>       0.04687500 </v>
   <v>       0.04687500 </v>
   <v>       0.04687500 </v>
   <v>       0.04687500 </v>
   <v>       0.09375000 </v>
   <v>       0.09375000 </v>
   <v>       0.04687500 </v>
   <v>       0.09375000 </v>
   <v>       0.04687500 </v>
   <v>       0.01562500 </v>
   <v>       0.04687500 </v>
   <v>       0.04687500 </v>
   <v>       0.04687500 </v>
   <v>       0.09375000 </v>
   <v>       0.04687500 </v>
   <v>       0.01562500 </v>
   <v>       0.04687500 </v>
   <v>       0.04687500 </v>
   <v>       0.01562500 </v>
  </varray>
 </kpoints>
 <parameters>
  <separator name="general" >
   <i type="string" name="SYSTEM">unknown system</i>
   <i type="logical" name="LCOMPAT"> F  </i>
  </separator>
  <separator name="electronic" >
   <i type="string" name="PREC">normal</i>
   <i name="ENMAX">    300.00000000</i>
   <i name="ENAUG">    332.07500000</i>
   <i name="EDIFF">      0.00010000</i>
   <i type="int" name="IALGO">    38</i>
   <i type="int" name="IWAVPR">    10</i>
   <i type="int" name="NBANDS">     9</i>
   <i name="NELECT">     10.00000000</i>
   <i type="int" name="TURBO">     0</i>
   <i type="int" name="IRESTART">     0</i>
   <i type="int" name="NREBOOT">     0</i>
   <i type="int" name="NMIN">     0</i>
   <i name="EREF">      0.00000000</i>
   <separator name="electronic smearing" >
    <i type="int" name="ISMEAR">     1</i>
    <i name="SIGMA">      0.20000000</i>
    <i name="KSPACING">      0.50000000</i>
    <i type="logical" name="KGAMMA"> T  </i>
   </separator>
   <separator name="electronic projectors" >
    <i type="logical" name="LREAL"> F  </i>
    <v name="ROPT">      0.00000000</v>
    <i type="int" name="LMAXPAW">  -100</i>
    <i type="int" name="LMAXMIX">     2</i>
    <i type="logical" name="NLSPLINE"> F  </i>
   </separator>
   <separator name="electronic startup" >
    <i type="int" name="ISTART">     1</i>
    <i type="int" name="ICHARG">     0</i>
    <i type="int" name="INIWAV">     1</i>
   </separator>
   <separator name="electronic spin" >
    <i type="int" name="ISPIN">     1</i>
    <i type="logical" name="LNONCOLLINEAR"> F  </i>
    <v name="MAGMOM">      1.00000000      1.00000000</v>
    <i name="NUPDOWN">     -1.00000000</i>
    <i type="logical" name="LSORBIT"> F  </i>
    <v name="SAXIS">      0.00000000      0.00000000      1.00000000</v>
    <i type="logical" name="LSPIRAL"> F  </i>
    <v name="QSPIRAL">      0.00000000      0.00000000      0.00000000</v>
    <i type="logical" name="LZEROZ"> F  </i>
   </separator>
   <separator name="electronic exchange-correlation" >
    <i type="logical" name="LASPH"> F  </i>
    <i type="logical" name="LMETAGGA"> F  </i>
   </separator>
   <separator name="electronic convergence" >
    <i type="int" name="NELM">    60</i>
    <i type="int" name="NELMDL">     0</i>
    <i type="int" name="NELMIN">     2</i>
    <i name="ENINI">    300.00000000</i>
    <separator name="electronic convergence detail" >
     <i type="logical" name="LDIAG"> T  </i>
     <i type="logical" name="LSUBROT"> T  </i>
     <i name="WEIMIN">      0.00000000</i>
     <i name="EBREAK">      0.00000278</i>
     <i name="DEPER">      0.30000000</i>
     <i type="int" name="NRMM">     4</i>
     <i name="TIME">      0.40000000</i>
    </separator>
   </separator>
   <separator name="electronic mixer" >
    <i name="AMIX">      0.40000000</i>
    <i name="BMIX">      1.00000000</i>
    <i name="AMIN">      0.10000000</i>
    <i name="AMIX_MAG">      1.60000000</i>
    <i name="BMIX_MAG">      1.00000000</i>
    <separator name="electronic mixer details" >
     <i type="int" name="IMIX">     4</i>
     <i type="int" name="MAXMIX">   -45</i>
     <i name="WC">    100.00000000</i>
     <i type="int" name="INIMIX">     1</i>
     <i type="int" name="MIXPRE">     1</i>
     <i type="int" name="MREMOVE">     5</i>
    </separator>
   </separator>
   <separator name="electronic dipolcorrection" >
    <i type="logical" name="LDIPOL"> F  </i>
    <i type="logical" name="LMONO"> F  </i>
    <i type="int" name="IDIPOL">     0</i>
    <i name="EPSILON">      1.00000000</i>
    <v name="DIPOL">   -100.00000000   -100.00000000   -100.00000000</v>
    <i name="EFIELD">      0.00000000</i>
   </separator>
  </separator>
  <separator name="grids" >
   <i type="int" name="NGX">    14</i>
   <i type="int" name="NGY">    14</i>
   <i type="int" name="NGZ">    14</i>
   <i type="int" name="NGXF">    28</i>
   <i type="int" name="NGYF">    28</i>
   <i type="int" name="NGZF">    28</i>
   <i type="logical" name="ADDGRID"> F  </i>
  </separator>
  <separator name="ionic" >
   <i type="int" name="NSW">     0</i>
   <i type="int" name="IBRION">    -1</i>
   <i type="int" name="ISIF">     2</i>
   <i name="PSTRESS">      0.00000000</i>
   <i name="EDIFFG">      0.00100000</i>
   <i type="int" name="NFREE">     0</i>
   <i name="POTIM">      0.50000000</i>
   <i name="SMASS">     -3.00000000</i>
   <i name="SCALEE">      1.00000000</i>
  </separator>
  <separator name="ionic md" >
   <i name="TEBEG">      0.00010000</i>
   <i name="TEEND">      0.00010000</i>
   <i type="int" name="NBLOCK">     1</i>
   <i type="int" name="KBLOCK">     1</i>
   <i type="int" name="NPACO">   256</i>
   <i name="APACO">     16.00000000</i>
  </separator>
  <separator name="symmetry" >
   <i type="int" name="ISYM">     2</i>
   <i name="SYMPREC">      0.00001000</i>
  </separator>
  <separator name="dos" >
   <i type="logical" name="LORBIT"> F  </i>
   <v name="RWIGS">     -1.00000000</v>
   <i type="int" name="NEDOS">   301</i>
   <i name="EMIN">     10.00000000</i>
   <i name="EMAX">    -10.00000000</i>
   <i name="EFERMI">      0.00000000</i>
  </separator>
  <separator name="writing" >
   <i type="int" name="NWRITE">     2</i>
   <i type="logical" name="LWAVE"> T  </i>
   <i type="logical" name="LCHARG"> T  </i>
   <i type="logical" name="LPARD"> F  </i>
   <i type="logical" name="LVTOT"> F  </i>
   <i type="logical" name="LVHAR"> F  </i>
   <i type="logical" name="LELF"> F  </i>
   <i type="logical" name="LOPTICS"> F  </i>
   <v name="STM">      0.00000000      0.00000000      0.00000000      0.00000000      0.00000000      0.00000000      0.00000000</v>
  </separator>
  <separator name="performance" >
   <i type="int" name="NPAR">     1</i>
   <i type="int" name="NSIM">     4</i>
   <i type="int" name="NBLK">    -1</i>
   <i type="logical" name="LPLANE"> T  </i>
   <i type="logical" name="LSCALAPACK"> F  </i>
   <i type="logical" name="LSCAAWARE"> F  </i>
   <i type="logical" name="LSCALU"> F  </i>
   <i type="logical" name="LASYNC"> F  </i>
   <i type="logical" name="LORBITALREAL"> F  </i>
  </separator>
  <separator name="miscellaneous" >
   <i type="int" name="IDIOT">     3</i>
   <i type="logical" name="LMUSIC"> F  </i>
   <v name="POMASS">    180.94800000</v>
   <v name="DARWINR">      0.00000000</v>
   <v name="DARWINV">      1.00000000</v>
   <i type="logical" name="LCORR"> T  </i>
  </separator>
  <i type="logical" name="GGA_COMPAT"> T  </i>
  <i type="logical" name="LBERRY"> F  </i>
  <i type="int" name="ICORELEVEL">     0</i>
  <i type="logical" name="LDAU"> F  </i>
  <i type="int" name="I_CONSTRAINED_M">     0</i>
  <separator name="electronic exchange-correlation" >
   <i type="string" name="GGA">--</i>
   <i type="int" name="VOSKOWN">     0</i>
   <i type="logical" name="LHFCALC"> F  </i>
   <i type="string" name="PRECFOCK"></i>
   <i type="logical" name="LHFONE"> F  </i>
   <i type="logical" name="LRHFCALC"> F  </i>
   <i type="logical" name="LTHOMAS"> F  </i>
   <i type="logical" name="LMODELHF"> F  </i>
   <i name="ENCUT4O">     -1.00000000</i>
   <i type="int" name="EXXOEP">     0</i>
   <i type="int" name="FOURORBIT">     0</i>
   <i name="AEXX">      0.00000000</i>
   <i name="HFALPHA">      0.00000000</i>
   <i name="ALDAX">      1.00000000</i>
   <i name="AGGAX">      1.00000000</i>
   <i name="ALDAC">      1.00000000</i>
   <i name="AGGAC">      1.00000000</i>
   <i type="int" name="NKREDX">     1</i>
   <i type="int" name="NKREDY">     1</i>
   <i type="int" name="NKREDZ">     1</i>
   <i type="logical" name="SHIFTRED"> F  </i>
   <i type="logical" name="ODDONLY"> F  </i>
   <i type="logical" name="EVENONLY"> F  </i>
   <i type="int" name="LMAXFOCK">     0</i>
   <i type="int" name="NMAXFOCKAE">     0</i>
   <i type="logical" name="LFOCKAEDFT"> F  </i>
   <i name="HFSCREEN">      0.00000000</i>
   <i name="HFSCREENC">      0.00000000</i>
  </separator>
  <separator name="vdW DFT" >
   <i type="logical" name="LUSE_VDW"> F  </i>
   <i name="Zab_VDW">     -0.84910000</i>
   <i name="PARAM1">      0.12340000</i>
   <i name="PARAM2">      1.00000000</i>
   <i name="PARAM3">      0.00000000</i>
  </separator>
  <separator name="model GW" >
   <i type="int" name="MODEL_GW">     0</i>
   <i name="MODEL_EPS0">     10.78110000</i>
   <i name="MODEL_ALPHA">      1.00000000</i>
  </separator>
  <separator name="linear response parameters" >
   <i type="logical" name="LEPSILON"> F  </i>
   <i type="logical" name="LRPA"> F  </i>
   <i type="logical" name="LNABLA"> F  </i>
   <i type="logical" name="LVEL"> F  </i>
   <i type="int" name="KINTER">     0</i>
   <i name="CSHIFT">      0.10000000</i>
   <i name="OMEGAMAX">     -1.00000000</i>
  </separator>
  <separator name="orbital magnetization" >
   <i type="logical" name="NUCIND"> F  </i>
   <v name="MAGPOS">      0.00000000      0.00000000      0.00000000</v>
   <i type="logical" name="LNICSALL"> T  </i>
   <i type="logical" name="ORBITALMAG"> F  </i>
   <i type="logical" name="LMAGBLOCH"> F  </i>
   <i type="logical" name="LCHIMAG"> F  </i>
   <i type="logical" name="LGAUGE"> T  </i>
   <i type="int" name="MAGATOM">     0</i>
   <v name="MAGDIPOL">      0.00000000      0.00000000      0.00000000</v>
   <v name="AVECCONST">      0.00000000      0.00000000      0.00000000</v>
  </separator>
  <separator name="response functions" >
   <i type="logical" name="LADDER"> F  </i>
   <i type="logical" name="LHARTREE"> T  </i>
   <i type="int" name="IBSE">     0</i>
   <i type="logical" name="LTCTE"> F  </i>
   <i type="logical" name="LTETE"> F  </i>
   <i type="logical" name="LFXCEPS"> F  </i>
   <i type="logical" name="L2ORDER"> F  </i>
   <i type="logical" name="LUSEW"> F  </i>
   <i name="ENCUTGW">     -2.00000000</i>
   <i name="ENCUTGWSOFT">     -2.00000000</i>
   <i name="ENCUTLF">     -1.00000000</i>
   <i type="int" name="LMAXMP2">    -1</i>
   <i name="SCISSOR">      0.00000000</i>
   <i type="int" name="NOMEGA">     0</i>
   <i type="int" name="NOMEGAR">     0</i>
   <i type="int" name="NBANDSGW">    -1</i>
   <i type="int" name="NBANDSO">    -1</i>
   <i type="int" name="NBANDSV">    -1</i>
   <i name="OPTEMAX">      0.00000000</i>
   <i type="int" name="NELM">     1</i>
   <i type="int" name="DIM">     3</i>
   <i type="int" name="ANTIRES">     0</i>
   <i name="OMEGAMAX">    -30.00000000</i>
   <i name="OMEGATL">   -200.00000000</i>
   <i type="int" name="OMEGAGRID">     0</i>
   <i name="CSHIFT">     -0.10000000</i>
   <i type="logical" name="SELFENERGY"> F  </i>
   <i type="logical" name="LSPECTRAL"> F  </i>
   <i type="logical" name="ODDONLYGW"> F  </i>
   <i type="logical" name="EVENONLYGW"> F  </i>
   <i type="int" name="NKREDLFX">     1</i>
   <i type="int" name="NKREDLFY">     1</i>
   <i type="int" name="NKREDLFZ">     1</i>
   <i type="int" name="MAXMEM">  1800</i>
   <i type="int" name="TELESCOPE">     0</i>
  </separator>
 </parameters>
 <atominfo>
  <atoms>       2 </atoms>
  <types>       1 </types>
  <array name="atoms" >
   <dimension dim="1">ion</dimension>
   <field type="string">element</field>
   <field type="int">atomtype</field>
   <set>
    <rc><c>Ta</c><c>   1</c></rc>
    <rc><c>Ta</c><c>   1</c></rc>
   </set>
  </array>
  <array name="atomtypes" >
   <dimension dim="1">type</dimension>
   <field type="int">atomspertype</field>
   <field type="string">element</field>
   <field>mass</field>
   <field>valence</field>
   <field type="string">pseudopotential</field>
   <set>
    <rc><c>   2</c><c>Ta</c><c>    180.94800000</c><c>      5.00000000</c><c>  PAW_PBE Ta 17Jan2003                  </c></rc>
   </set>
  </array>
 </atominfo>
 <structure name="initialpos" >
  <crystal>
   <varray name="basis" >
    <v>       3.30000000       0.00000000       0.00000000 </v>
    <v>       0.00000000       3.30000000       0.00000000 </v>
    <v>       0.00000000       0.00000000       3.30000000 </v>
   </varray>
   <i name="volume">     35.93700000 </i>
   <varray name="rec_basis" >
    <v>       0.30303030       0.00000000       0.00000000 </v>
    <v>       0.00000000       0.30303030       0.00000000 </v>
    <v>       0.00000000       0.00000000       0.30303030 </v>
   </varray>
  </crystal>
  <varray name="positions" >
   <v>       0.00000000       0.00000000       0.00000000 </v>
   <v>       0.50000000       0.50000000       0.50000000 </v>
  </varray>
 </structure>
 <calculation>
  <scstep>
   <time name="dav">    0.27    0.27</time>
   <time name="total">    0.35    0.42</time>
   <energy>
    <i name="alphaZ">     61.72442886 </i>
    <i name="ewald">   -397.00141982 </i>
    <i name="hartreedc">     -0.56338270 </i>
    <i name="XCdc">   -135.39223215 </i>
    <i name="pawpsdc">    314.04086205 </i>
    <i name="pawaedc">   -166.91429613 </i>
    <i name="eentropy">      0.00507376 </i>
    <i name="bandstr">     39.43261180 </i>
    <i name="atom">    261.27705443 </i>
    <i name="e_fr_energy">    -23.39129991 </i>
    <i name="e_wo_entrp">    -23.39637367 </i>
    <i name="e_0_energy">    -23.39299116 </i>
   </energy>
  </scstep>
  <scstep>
   <time name="dav">    0.33    0.33</time>
   <time name="total">    0.40    0.41</time>
   <energy>
    <i name="e_fr_energy">    -23.73664949 </i>
    <i name="e_wo_entrp">    -23.74538899 </i>
    <i name="e_0_energy">    -23.73956266 </i>
   </energy>
  </scstep>
  <scstep>
   <time name="dav">    0.31    0.31</time>
   <time name="total">    0.39    0.40</time>
   <energy>
    <i name="e_fr_energy">    -23.72118360 </i>
    <i name="e_wo_entrp">    -23.72961713 </i>
    <i name="e_0_energy">    -23.72399478 </i>
   </energy>
  </scstep>
  <scstep>
   <time name="dav">    0.38    0.38</time>
   <time name="total">    0.47    0.48</time>
   <energy>
    <i name="e_fr_energy">    -23.72137359 </i>
    <i name="e_wo_entrp">    -23.72973880 </i>
    <i name="e_0_energy">    -23.72416200 </i>
   </energy>
  </scstep>
  <scstep>
   <time name="dav">    0.33    0.33</time>
   <time name="total">    0.42    0.71</time>
   <energy>
    <i name="e_fr_energy">    -23.72116801 </i>
    <i name="e_wo_entrp">    -23.72959560 </i>
    <i name="e_0_energy">    -23.72397721 </i>
   </energy>
  </scstep>
  <scstep>
   <time name="dav">    0.21    0.21</time>
   <time name="total">    0.26    0.27</time>
   <energy>
    <i name="alphaZ">     61.72442886 </i>
    <i name="ewald">   -397.00141982 </i>
    <i name="hartreedc">     -1.11350880 </i>
    <i name="XCdc">   -131.94549029 </i>
    <i name="pawpsdc">    393.68701290 </i>
    <i name="pawaedc">   -246.88962999 </i>
    <i name="eentropy">      0.00842894 </i>
    <i name="bandstr">     36.53195672 </i>
    <i name="atom">    261.27705443 </i>
    <i name="e_fr_energy">    -23.72116705 </i>
    <i name="e_wo_entrp">    -23.72959599 </i>
    <i name="e_0_energy">    -23.72397670 </i>
   </energy>
  </scstep>
  <parameters_embedded>
   <separator name="dft+d2" >
    <i type="logical" name="LVDW"> F  </i>
   </separator>
  </parameters_embedded>
  <structure>
   <crystal>
    <varray name="basis" >
     <v>       3.30000000       0.00000000       0.00000000 </v>
     <v>       0.00000000       3.30000000       0.00000000 </v>
     <v>       0.00000000       0.00000000       3.30000000 </v>
    </varray>
    <i name="volume">     35.93700000 </i>
    <varray name="rec_basis" >
     <v>       0.30303030       0.00000000       0.00000000 </v>
     <v>       0.00000000       0.30303030       0.00000000 </v>
     <v>       0.00000000       0.00000000       0.30303030 </v>
    </varray>
   </crystal>
   <varray name="positions" >
    <v>       0.00000000       0.00000000       0.00000000 </v>
    <v>       0.50000000       0.50000000       0.50000000 </v>
   </varray>
  </structure>
  <varray name="forces" >
   <v>       0.00000000       0.00000000       0.00000000 </v>
   <v>       0.00000000       0.00000000       0.00000000 </v>
  </varray>
  <varray name="stress" >
   <v>      14.40729060       0.00000000       0.00000000 </v>
   <v>       0.00000000      14.40729060       0.00000000 </v>
   <v>       0.00000000       0.00000000      14.40729060 </v>
  </varray>
  <energy>
   <i name="e_fr_energy">    -23.72116705 </i>
   <i name="e_wo_entrp">    -23.72397670 </i>
   <i name="e_0_energy">      0.00842894 </i>
  </energy>
  <time name="totalsc">    2.77    3.36</time>
  <eigenvalues>
   <array>
    <dimension dim="1">band</dimension>
    <dimension dim="2">kpoint</dimension>
    <dimension dim="3">spin</dimension>
    <field>eigene</field>
    <field>occ</field>
    <set>
     <set comment="spin 1">
      <set comment="kpoint 1">
       <r>   -1.8821    1.0000 </r>
       <r>    2.1362    1.0000 </r>
       <r>    2.1362    1.0000 </r>
       <r>    6.3778    0.0000 </r>
       <r>    6.3778    0.0000 </r>
       <r>    6.8153    0.0000 </r>
       <r>    9.6578    0.0000 </r>
       <r>    9.6578    0.0000 </r>
       <r>   10.7011    0.0000 </r>
      </set>
      <set comment="kpoint 2">
       <r>   -1.2313    1.0000 </r>
       <r>    2.4924    1.0000 </r>
       <r>    2.6046    1.0000 </r>
       <r>    6.1318   -0.0096 </r>
       <r>    6.2357   -0.0014 </r>
       <r>    7.3310    0.0000 </r>
       <r>    8.7803    0.0000 </r>
       <r>    8.9819    0.0000 </r>
       <r>   10.0771    0.0000 </r>
      </set>
      <set comment="kpoint 3">
       <r>   -0.0549    1.0000 </r>
       <r>    3.0564    1.0000 </r>
       <r>    3.1875    1.0000 </r>
       <r>    5.9993   -0.0351 </r>
       <r>    6.0874   -0.0177 </r>
       <r>    7.6095    0.0000 </r>
       <r>    7.6737    0.0000 </r>
       <r>    8.0711    0.0000 </r>
       <r>    8.6680    0.0000 </r>
      </set>
      <set comment="kpoint 4">
       <r>    1.3868    1.0000 </r>
       <r>    2.6432    1.0000 </r>
       <r>    4.1719    1.0000 </r>
       <r>    5.2886    1.0030 </r>
       <r>    6.3584   -0.0001 </r>
       <r>    6.9085    0.0000 </r>
       <r>    7.1243    0.0000 </r>
       <r>    7.6027    0.0000 </r>
       <r>    9.0326    0.0000 </r>
      </set>
      <set comment="kpoint 5">
       <r>   -0.6500    1.0000 </r>
       <r>    2.7660    1.0000 </r>
       <r>    3.0942    1.0000 </r>
       <r>    5.6294    0.9067 </r>
       <r>    5.8908    0.0282 </r>
       <r>    7.4263    0.0000 </r>
       <r>    8.1995    0.0000 </r>
       <r>    9.1420    0.0000 </r>
       <r>    9.2084    0.0000 </r>
      </set>
      <set comment="kpoint 6">
       <r>    0.3605    1.0000 </r>
       <r>    2.9831    1.0000 </r>
       <r>    3.7950    1.0000 </r>
       <r>    5.3199    1.0053 </r>
       <r>    5.5759    0.9993 </r>
       <r>    6.4343    0.0000 </r>
       <r>    8.1479    0.0000 </r>
       <r>    8.6166    0.0000 </r>
       <r>    9.3957    0.0000 </r>
      </set>
      <set comment="kpoint 7">
       <r>    1.5287    1.0000 </r>
       <r>    2.5424    1.0000 </r>
       <r>    4.4416    1.0000 </r>
       <r>    5.0394    1.0000 </r>
       <r>    5.5388    1.0275 </r>
       <r>    5.9236   -0.0114 </r>
       <r>    8.0045    0.0000 </r>
       <r>    8.1694    0.0000 </r>
       <r>   10.3474    0.0000 </r>
      </set>
      <set comment="kpoint 8">
       <r>    0.9620    1.0000 </r>
       <r>    2.6023    1.0000 </r>
       <r>    4.7889    1.0000 </r>
       <r>    4.8315    1.0000 </r>
       <r>    5.5274    1.0316 </r>
       <r>    5.5576    1.0163 </r>
       <r>    7.8865    0.0000 </r>
       <r>    9.4708    0.0000 </r>
       <r>   10.4629    0.0000 </r>
      </set>
      <set comment="kpoint 9">
       <r>    1.5232    1.0000 </r>
       <r>    2.0612    1.0000 </r>
       <r>    4.6334    1.0000 </r>
       <r>    4.8849    1.0000 </r>
       <r>    5.6701    0.7891 </r>
       <r>    5.8347    0.1556 </r>
       <r>    8.5869    0.0000 </r>
       <r>    9.2907    0.0000 </r>
       <r>   10.6605    0.0000 </r>
      </set>
      <set comment="kpoint 10">
       <r>    1.4785    1.0000 </r>
       <r>    1.6414    1.0000 </r>
       <r>    4.2867    1.0000 </r>
       <r>    4.3842    1.0000 </r>
       <r>    6.8094    0.0000 </r>
       <r>    6.8423    0.0000 </r>
       <r>    9.3099    0.0000 </r>
       <r>    9.7579    0.0000 </r>
       <r>   10.6211    0.0000 </r>
      </set>
      <set comment="kpoint 11">
       <r>   -0.0823    1.0000 </r>
       <r>    3.3209    1.0000 </r>
       <r>    3.3209    1.0000 </r>
       <r>    5.3487    1.0087 </r>
       <r>    5.3487    1.0087 </r>
       <r>    5.8672    0.0723 </r>
       <r>    9.1999    0.0000 </r>
       <r>    9.5880    0.0000 </r>
       <r>   10.5981    0.0000 </r>
      </set>
      <set comment="kpoint 12">
       <r>    0.8698    1.0000 </r>
       <r>    3.6044    1.0000 </r>
       <r>    3.7201    1.0000 </r>
       <r>    4.9703    1.0000 </r>
       <r>    5.0861    1.0000 </r>
       <r>    5.2407    1.0011 </r>
       <r>    9.1204    0.0000 </r>
       <r>    9.3363    0.0000 </r>
       <r>   10.2988    0.0000 </r>
      </set>
      <set comment="kpoint 13">
       <r>    1.8971    1.0000 </r>
       <r>    2.8319    1.0000 </r>
       <r>    4.1809    1.0000 </r>
       <r>    4.5955    1.0000 </r>
       <r>    5.3135    1.0048 </r>
       <r>    5.5663    1.0091 </r>
       <r>    8.6910    0.0000 </r>
       <r>    8.6912    0.0000 </r>
       <r>   10.6259    0.0000 </r>
      </set>
      <set comment="kpoint 14">
       <r>    1.5986    1.0000 </r>
       <r>    3.1821    1.0000 </r>
       <r>    4.5907    1.0000 </r>
       <r>    4.6318    1.0000 </r>
       <r>    4.7754    1.0000 </r>
       <r>    4.9206    1.0000 </r>
       <r>    9.1762    0.0000 </r>
       <r>    9.7111    0.0000 </r>
       <r>   10.2490    0.0000 </r>
      </set>
      <set comment="kpoint 15">
       <r>    2.1542    1.0000 </r>
       <r>    2.6114    1.0000 </r>
       <r>    4.4179    1.0000 </r>
       <r>    4.4581    1.0000 </r>
       <r>    5.3108    1.0045 </r>
       <r>    5.4955    1.0354 </r>
       <r>    9.2554    0.0000 </r>
       <r>    9.5617    0.0000 </r>
       <r>   10.6237    0.0000 </r>
      </set>
      <set comment="kpoint 16">
       <r>    2.1706    1.0000 </r>
       <r>    2.2861    1.0000 </r>
       <r>    4.1930    1.0000 </r>
       <r>    4.2580    1.0000 </r>
       <r>    6.1287   -0.0101 </r>
       <r>    6.2536   -0.0009 </r>
       <r>    9.7341    0.0000 </r>
       <r>    9.9893    0.0000 </r>
       <r>   10.6787    0.0000 </r>
      </set>
      <set comment="kpoint 17">
       <r>    2.5799    1.0000 </r>
       <r>    3.4367    1.0000 </r>
       <r>    4.3827    1.0000 </r>
       <r>    4.3827    1.0000 </r>
       <r>    4.6324    1.0000 </r>
       <r>    4.6324    1.0000 </r>
       <r>   10.2392    0.0000 </r>
       <r>   10.2392    0.0000 </r>
       <r>   10.2540    0.0000 </r>
      </set>
      <set comment="kpoint 18">
       <r>    3.0447    1.0000 </r>
       <r>    3.1421    1.0000 </r>
       <r>    4.3235    1.0000 </r>
       <r>    4.4391    1.0000 </r>
       <r>    4.7393    1.0000 </r>
       <r>    5.1724    1.0002 </r>
       <r>   10.0284    0.0000 </r>
       <r>   10.1124    0.0000 </r>
       <r>   10.6490    0.0000 </r>
      </set>
      <set comment="kpoint 19">
       <r>    3.2530    1.0000 </r>
       <r>    3.3489    1.0000 </r>
       <r>    4.1530    1.0000 </r>
       <r>    4.3080    1.0000 </r>
       <r>    5.2197    1.0007 </r>
       <r>    5.4679    1.0325 </r>
       <r>   10.3465    0.0000 </r>
       <r>   10.4268    0.0000 </r>
       <r>   10.7646    0.0000 </r>
      </set>
      <set comment="kpoint 20">
       <r>    3.8717    1.0000 </r>
       <r>    4.3209    1.0000 </r>
       <r>    4.3209    1.0000 </r>
       <r>    4.6212    1.0000 </r>
       <r>    4.7702    1.0000 </r>
       <r>    4.7702    1.0000 </r>
       <r>   10.7765    0.0000 </r>
       <r>   10.7877    0.0000 </r>
       <r>   10.7877    0.0000 </r>
      </set>
     </set>
    </set>
   </array>
  </eigenvalues>
  <separator name="orbital magnetization" >
   <v name="MAGDIPOLOUT">      0.00000000      0.00000000      0.00000000</v>
  </separator>
  <dos>
   <i name="efermi">      5.74366938 </i>
   <total>
    <array>
     <dimension dim="1">gridpoints</dimension>
     <dimension dim="2">spin</dimension>
     <field>energy</field>
     <field>total</field>
     <field>integrated</field>
     <set>
      <set comment="spin 1">
       <r>    -3.8821     0.0000     0.0000 </r>
       <r>    -3.8266     0.0000     0.0000 </r>
       <r>    -3.7710     0.0000     0.0000 </r>
       <r>    -3.7154     0.0000     0.0000 </r>
       <r>    -3.6599     0.0000     0.0000 </r>
       <r>    -3.6043     0.0000     0.0000 </r>
       <r>    -3.5487     0.0000     0.0000 </r>
       <r>    -3.4932     0.0000     0.0000 </r>
       <r>    -3.4376     0.0000     0.0000 </r>
       <r>    -3.3820     0.0000     0.0000 </r>
       <r>    -3.3265     0.0000     0.0000 </r>
       <r>    -3.2709     0.0000     0.0000 </r>
       <r>    -3.2153     0.0000     0.0000 </r>
       <r>    -3.1598     0.0000     0.0000 </r>
       <r>    -3.1042     0.0000     0.0000 </r>
       <r>    -3.0486     0.0000     0.0000 </r>
       <r>    -2.9931     0.0000     0.0000 </r>
       <r>    -2.9375     0.0000     0.0000 </r>
       <r>    -2.8819     0.0000     0.0000 </r>
       <r>    -2.8264     0.0000     0.0000 </r>
       <r>    -2.7708     0.0000     0.0000 </r>
       <r>    -2.7152     0.0000     0.0000 </r>
       <r>    -2.6597     0.0000     0.0000 </r>
       <r>    -2.6041     0.0000     0.0000 </r>
       <r>    -2.5485     0.0000     0.0000 </r>
       <r>    -2.4930     0.0000     0.0000 </r>
       <r>    -2.4374    -0.0001     0.0000 </r>
       <r>    -2.3818    -0.0005     0.0000 </r>
       <r>    -2.3263    -0.0014    -0.0001 </r>
       <r>    -2.2707    -0.0033    -0.0003 </r>
       <r>    -2.2151    -0.0059    -0.0006 </r>
       <r>    -2.1596    -0.0068    -0.0010 </r>
       <r>    -2.1040    -0.0005    -0.0010 </r>
       <r>    -2.0484     0.0199     0.0001 </r>
       <r>    -1.9929     0.0560     0.0032 </r>
       <r>    -1.9373     0.0980     0.0086 </r>
       <r>    -1.8817     0.1268     0.0157 </r>
       <r>    -1.8262     0.1265     0.0227 </r>
       <r>    -1.7706     0.0969     0.0281 </r>
       <r>    -1.7150     0.0534     0.0311 </r>
       <r>    -1.6595     0.0140     0.0318 </r>
       <r>    -1.6039    -0.0128     0.0311 </r>
       <r>    -1.5483    -0.0265     0.0296 </r>
       <r>    -1.4928    -0.0241     0.0283 </r>
       <r>    -1.4372     0.0078     0.0287 </r>
       <r>    -1.3816     0.0851     0.0335 </r>
       <r>    -1.3261     0.2040     0.0448 </r>
       <r>    -1.2705     0.3254     0.0629 </r>
       <r>    -1.2149     0.3900     0.0846 </r>
       <r>    -1.1594     0.3610     0.1046 </r>
       <r>    -1.1038     0.2537     0.1187 </r>
       <r>    -1.0482     0.1226     0.1255 </r>
       <r>    -0.9927     0.0196     0.1266 </r>
       <r>    -0.9371    -0.0317     0.1249 </r>
       <r>    -0.8815    -0.0283     0.1233 </r>
       <r>    -0.8260     0.0300     0.1250 </r>
       <r>    -0.7704     0.1386     0.1327 </r>
       <r>    -0.7148     0.2700     0.1477 </r>
       <r>    -0.6593     0.3697     0.1682 </r>
       <r>    -0.6037     0.3860     0.1897 </r>
       <r>    -0.5481     0.3094     0.2068 </r>
       <r>    -0.4926     0.1810     0.2169 </r>
       <r>    -0.4370     0.0584     0.2201 </r>
       <r>    -0.3814    -0.0204     0.2190 </r>
       <r>    -0.3259    -0.0435     0.2166 </r>
       <r>    -0.2703    -0.0058     0.2163 </r>
       <r>    -0.2147     0.0987     0.2218 </r>
       <r>    -0.1592     0.2577     0.2361 </r>
       <r>    -0.1036     0.4180     0.2593 </r>
       <r>    -0.0481     0.5005     0.2871 </r>
       <r>     0.0075     0.4551     0.3124 </r>
       <r>     0.0631     0.3087     0.3296 </r>
       <r>     0.1186     0.1595     0.3384 </r>
       <r>     0.1742     0.1180     0.3450 </r>
       <r>     0.2298     0.2374     0.3582 </r>
       <r>     0.2853     0.4719     0.3844 </r>
       <r>     0.3409     0.6935     0.4229 </r>
       <r>     0.3965     0.7690     0.4656 </r>
       <r>     0.4520     0.6509     0.5018 </r>
       <r>     0.5076     0.4057     0.5244 </r>
       <r>     0.5632     0.1555     0.5330 </r>
       <r>     0.6187    -0.0036     0.5328 </r>
       <r>     0.6743    -0.0345     0.5309 </r>
       <r>     0.7299     0.0586     0.5341 </r>
       <r>     0.7854     0.2480     0.5479 </r>
       <r>     0.8410     0.4767     0.5744 </r>
       <r>     0.8966     0.6579     0.6110 </r>
       <r>     0.9521     0.7092     0.6504 </r>
       <r>     1.0077     0.6026     0.6839 </r>
       <r>     1.0633     0.3845     0.7052 </r>
       <r>     1.1188     0.1459     0.7133 </r>
       <r>     1.1744    -0.0242     0.7120 </r>
       <r>     1.2300    -0.0582     0.7087 </r>
       <r>     1.2855     0.0999     0.7143 </r>
       <r>     1.3411     0.4954     0.7418 </r>
       <r>     1.3967     1.1186     0.8040 </r>
       <r>     1.4522     1.8427     0.9064 </r>
       <r>     1.5078     2.4223     1.0410 </r>
       <r>     1.5634     2.6058     1.1858 </r>
       <r>     1.6189     2.3008     1.3136 </r>
       <r>     1.6745     1.6507     1.4053 </r>
       <r>     1.7301     0.9447     1.4578 </r>
       <r>     1.7856     0.4393     1.4822 </r>
       <r>     1.8412     0.2445     1.4958 </r>
       <r>     1.8968     0.3414     1.5148 </r>
       <r>     1.9523     0.6655     1.5518 </r>
       <r>     2.0079     1.1444     1.6154 </r>
       <r>     2.0635     1.6623     1.7077 </r>
       <r>     2.1190     2.0377     1.8210 </r>
       <r>     2.1746     2.0936     1.9373 </r>
       <r>     2.2302     1.7852     2.0365 </r>
       <r>     2.2857     1.2675     2.1069 </r>
       <r>     2.3413     0.8353     2.1533 </r>
       <r>     2.3969     0.7737     2.1963 </r>
       <r>     2.4524     1.1973     2.2629 </r>
       <r>     2.5080     1.9569     2.3716 </r>
       <r>     2.5636     2.6865     2.5209 </r>
       <r>     2.6191     3.0092     2.6881 </r>
       <r>     2.6747     2.7793     2.8425 </r>
       <r>     2.7303     2.1655     2.9629 </r>
       <r>     2.7858     1.5111     3.0468 </r>
       <r>     2.8414     1.1129     3.1087 </r>
       <r>     2.8970     1.0942     3.1695 </r>
       <r>     2.9525     1.4047     3.2475 </r>
       <r>     3.0081     1.8803     3.3520 </r>
       <r>     3.0637     2.3180     3.4808 </r>
       <r>     3.1192     2.5575     3.6229 </r>
       <r>     3.1748     2.5361     3.7638 </r>
       <r>     3.2304     2.2874     3.8909 </r>
       <r>     3.2859     1.8939     3.9962 </r>
       <r>     3.3415     1.4415     4.0763 </r>
       <r>     3.3971     1.0058     4.1322 </r>
       <r>     3.4526     0.6595     4.1688 </r>
       <r>     3.5082     0.4693     4.1949 </r>
       <r>     3.5638     0.4722     4.2211 </r>
       <r>     3.6193     0.6505     4.2573 </r>
       <r>     3.6749     0.9247     4.3086 </r>
       <r>     3.7305     1.1687     4.3736 </r>
       <r>     3.7860     1.2491     4.4430 </r>
       <r>     3.8416     1.0938     4.5038 </r>
       <r>     3.8972     0.7558     4.5458 </r>
       <r>     3.9527     0.4158     4.5689 </r>
       <r>     4.0083     0.2992     4.5855 </r>
       <r>     4.0638     0.5523     4.6162 </r>
       <r>     4.1194     1.1643     4.6809 </r>
       <r>     4.1750     1.9910     4.7915 </r>
       <r>     4.2305     2.8554     4.9502 </r>
       <r>     4.2861     3.6277     5.1518 </r>
       <r>     4.3417     4.2158     5.3860 </r>
       <r>     4.3972     4.5262     5.6375 </r>
       <r>     4.4528     4.4980     5.8875 </r>
       <r>     4.5084     4.1886     6.1202 </r>
       <r>     4.5639     3.7727     6.3298 </r>
       <r>     4.6195     3.4227     6.5200 </r>
       <r>     4.6751     3.2028     6.6980 </r>
       <r>     4.7306     3.0808     6.8692 </r>
       <r>     4.7862     2.9975     7.0357 </r>
       <r>     4.8418     2.9004     7.1969 </r>
       <r>     4.8973     2.7480     7.3496 </r>
       <r>     4.9529     2.5249     7.4899 </r>
       <r>     5.0085     2.2698     7.6160 </r>
       <r>     5.0640     2.0829     7.7318 </r>
       <r>     5.1196     2.0921     7.8480 </r>
       <r>     5.1752     2.3659     7.9795 </r>
       <r>     5.2307     2.8265     8.1365 </r>
       <r>     5.2863     3.2732     8.3184 </r>
       <r>     5.3419     3.5558     8.5160 </r>
       <r>     5.3974     3.7246     8.7230 </r>
       <r>     5.4530     3.9439     8.9421 </r>
       <r>     5.5086     4.2320     9.1773 </r>
       <r>     5.5641     4.3562     9.4193 </r>
       <r>     5.6197     4.0542     9.6446 </r>
       <r>     5.6753     3.3425     9.8303 </r>
       <r>     5.7308     2.5513     9.9721 </r>
       <r>     5.7864     2.0456    10.0858 </r>
       <r>     5.8420     1.9335    10.1932 </r>
       <r>     5.8975     2.0396    10.3065 </r>
       <r>     5.9531     2.1205    10.4244 </r>
       <r>     6.0087     2.0727    10.5395 </r>
       <r>     6.0642     1.9488    10.6478 </r>
       <r>     6.1198     1.8367    10.7499 </r>
       <r>     6.1754     1.7717    10.8483 </r>
       <r>     6.2309     1.7471    10.9454 </r>
       <r>     6.2865     1.7484    11.0426 </r>
       <r>     6.3421     1.7420    11.1394 </r>
       <r>     6.3976     1.6533    11.2312 </r>
       <r>     6.4532     1.4042    11.3092 </r>
       <r>     6.5088     0.9964    11.3646 </r>
       <r>     6.5643     0.5495    11.3951 </r>
       <r>     6.6199     0.2443    11.4087 </r>
       <r>     6.6755     0.2117    11.4205 </r>
       <r>     6.7310     0.4502    11.4455 </r>
       <r>     6.7866     0.8179    11.4910 </r>
       <r>     6.8422     1.1081    11.5525 </r>
       <r>     6.8977     1.1724    11.6177 </r>
       <r>     6.9533     1.0100    11.6738 </r>
       <r>     7.0089     0.7468    11.7153 </r>
       <r>     7.0644     0.5255    11.7445 </r>
       <r>     7.1200     0.4116    11.7674 </r>
       <r>     7.1756     0.3925    11.7892 </r>
       <r>     7.2311     0.4341    11.8133 </r>
       <r>     7.2867     0.5132    11.8418 </r>
       <r>     7.3423     0.6091    11.8757 </r>
       <r>     7.3978     0.7026    11.9147 </r>
       <r>     7.4534     0.7970    11.9590 </r>
       <r>     7.5090     0.9149    12.0098 </r>
       <r>     7.5645     1.0482    12.0681 </r>
       <r>     7.6201     1.1257    12.1306 </r>
       <r>     7.6757     1.0647    12.1898 </r>
       <r>     7.7312     0.8676    12.2380 </r>
       <r>     7.7868     0.6518    12.2742 </r>
       <r>     7.8424     0.5745    12.3061 </r>
       <r>     7.8979     0.7308    12.3467 </r>
       <r>     7.9535     1.1153    12.4087 </r>
       <r>     8.0091     1.6435    12.5000 </r>
       <r>     8.0646     2.1722    12.6207 </r>
       <r>     8.1202     2.5125    12.7603 </r>
       <r>     8.1757     2.4853    12.8984 </r>
       <r>     8.2313     2.0326    13.0114 </r>
       <r>     8.2869     1.2966    13.0834 </r>
       <r>     8.3424     0.5747    13.1154 </r>
       <r>     8.3980     0.1735    13.1250 </r>
       <r>     8.4536     0.2706    13.1400 </r>
       <r>     8.5091     0.8438    13.1869 </r>
       <r>     8.5647     1.6657    13.2795 </r>
       <r>     8.6203     2.3778    13.4116 </r>
       <r>     8.6758     2.6565    13.5592 </r>
       <r>     8.7314     2.3961    13.6924 </r>
       <r>     8.7870     1.7673    13.7906 </r>
       <r>     8.8425     1.0981    13.8516 </r>
       <r>     8.8981     0.6760    13.8891 </r>
       <r>     8.9537     0.6248    13.9239 </r>
       <r>     9.0092     0.9155    13.9747 </r>
       <r>     9.0648     1.4532    14.0555 </r>
       <r>     9.1204     2.1349    14.1741 </r>
       <r>     9.1759     2.8395    14.3319 </r>
       <r>     9.2315     3.4023    14.5209 </r>
       <r>     9.2871     3.6505    14.7238 </r>
       <r>     9.3426     3.5029    14.9184 </r>
       <r>     9.3982     3.0419    15.0875 </r>
       <r>     9.4538     2.4798    15.2252 </r>
       <r>     9.5093     2.0320    15.3382 </r>
       <r>     9.5649     1.7999    15.4382 </r>
       <r>     9.6205     1.7391    15.5348 </r>
       <r>     9.6760     1.7123    15.6300 </r>
       <r>     9.7316     1.5832    15.7179 </r>
       <r>     9.7872     1.3122    15.7908 </r>
       <r>     9.8427     0.9969    15.8462 </r>
       <r>     9.8983     0.8076    15.8911 </r>
       <r>     9.9539     0.8477    15.9382 </r>
       <r>    10.0094     1.0679    15.9975 </r>
       <r>    10.0650     1.3287    16.0714 </r>
       <r>    10.1206     1.5446    16.1572 </r>
       <r>    10.1761     1.7474    16.2543 </r>
       <r>    10.2317     1.9951    16.3652 </r>
       <r>    10.2873     2.2466    16.4900 </r>
       <r>    10.3428     2.3729    16.6219 </r>
       <r>    10.3984     2.3158    16.7505 </r>
       <r>    10.4540     2.2190    16.8738 </r>
       <r>    10.5095     2.3439    17.0041 </r>
       <r>    10.5651     2.8076    17.1601 </r>
       <r>    10.6207     3.4002    17.3490 </r>
       <r>    10.6762     3.7013    17.5547 </r>
       <r>    10.7318     3.4130    17.7443 </r>
       <r>    10.7874     2.5902    17.8883 </r>
       <r>    10.8429     1.5671    17.9753 </r>
       <r>    10.8985     0.6961    18.0140 </r>
       <r>    10.9541     0.1515    18.0224 </r>
       <r>    11.0096    -0.0859    18.0177 </r>
       <r>    11.0652    -0.1311    18.0104 </r>
       <r>    11.1208    -0.0976    18.0050 </r>
       <r>    11.1763    -0.0536    18.0020 </r>
       <r>    11.2319    -0.0236    18.0007 </r>
       <r>    11.2875    -0.0086    18.0002 </r>
       <r>    11.3430    -0.0026    18.0000 </r>
       <r>    11.3986    -0.0007    18.0000 </r>
       <r>    11.4542    -0.0001    18.0000 </r>
       <r>    11.5097     0.0000    18.0000 </r>
       <r>    11.5653     0.0000    18.0000 </r>
       <r>    11.6209     0.0000    18.0000 </r>
       <r>    11.6764     0.0000    18.0000 </r>
       <r>    11.7320     0.0000    18.0000 </r>
       <r>    11.7876     0.0000    18.0000 </r>
       <r>    11.8431     0.0000    18.0000 </r>
       <r>    11.8987     0.0000    18.0000 </r>
       <r>    11.9543     0.0000    18.0000 </r>
       <r>    12.0098     0.0000    18.0000 </r>
       <r>    12.0654     0.0000    18.0000 </r>
       <r>    12.1210     0.0000    18.0000 </r>
       <r>    12.1765     0.0000    18.0000 </r>
       <r>    12.2321     0.0000    18.0000 </r>
       <r>    12.2876     0.0000    18.0000 </r>
       <r>    12.3432     0.0000    18.0000 </r>
       <r>    12.3988     0.0000    18.0000 </r>
       <r>    12.4543     0.0000    18.0000 </r>
       <r>    12.5099     0.0000    18.0000 </r>
       <r>    12.5655     0.0000    18.0000 </r>
       <r>    12.6210     0.0000    18.0000 </r>
       <r>    12.6766     0.0000    18.0000 </r>
       <r>    12.7322     0.0000    18.0000 </r>
       <r>    12.7877     0.0000    18.0000 </r>
      </set>
     </set>
    </array>
   </total>
  </dos>
 </calculation>
 <structure name="finalpos" >
  <crystal>
   <varray name="basis" >
    <v>       3.30000000       0.00000000       0.00000000 </v>
    <v>       0.00000000       3.30000000       0.00000000 </v>
    <v>       0.00000000       0.00000000       3.30000000 </v>
   </varray>
   <i name="volume">     35.93700000 </i>
   <varray name="rec_basis" >
    <v>       0.30303030       0.00000000       0.00000000 </v>
    <v>       0.00000000       0.30303030       0.00000000 </v>
    <v>       0.00000000       0.00000000       0.30303030 </v>
   </varray>
  </crystal>
  <varray name="positions" >
   <v>       0.00000000       0.00000000       0.00000000 </v>
   <v>       0.50000000       0.50000000       0.50000000 </v>
  </varray>
 </structure>
</modeling>
